
                                 *****************
                                 * O   R   C   A *
                                 *****************

                                            #,                                       
                                            ###                                      
                                            ####                                     
                                            #####                                    
                                            ######                                   
                                           ########,                                 
                                     ,,################,,,,,                         
                               ,,#################################,,                 
                          ,,##########################################,,             
                       ,#########################################, ''#####,          
                    ,#############################################,,   '####,        
                  ,##################################################,,,,####,       
                ,###########''''           ''''###############################       
              ,#####''   ,,,,##########,,,,          '''####'''          '####       
            ,##' ,,,,###########################,,,                        '##       
           ' ,,###''''                  '''############,,,                           
         ,,##''                                '''############,,,,        ,,,,,,###''
      ,#''                                            '''#######################'''  
     '                                                          ''''####''''         
             ,#######,   #######,   ,#######,      ##                                
            ,#'     '#,  ##    ##  ,#'     '#,    #''#        ######   ,####,        
            ##       ##  ##   ,#'  ##            #'  '#       #        #'  '#        
            ##       ##  #######   ##           ,######,      #####,   #    #        
            '#,     ,#'  ##    ##  '#,     ,#' ,#      #,         ##   #,  ,#        
             '#######'   ##     ##  '#######'  #'      '#     #####' # '####'        



                  #######################################################
                  #                        -***-                        #
                  #          Department of theory and spectroscopy      #
                  #    Directorship and core code : Frank Neese         #
                  #        Max Planck Institute fuer Kohlenforschung    #
                  #                Kaiser Wilhelm Platz 1               #
                  #                 D-45470 Muelheim/Ruhr               #
                  #                      Germany                        #
                  #                                                     #
                  #                  All rights reserved                #
                  #                        -***-                        #
                  #######################################################


                         Program Version 5.0.3 -  RELEASE  -


 With contributions from (in alphabetic order):
   Daniel Aravena         : Magnetic Suceptibility
   Michael Atanasov       : Ab Initio Ligand Field Theory (pilot matlab implementation)
   Alexander A. Auer      : GIAO ZORA, VPT2 properties, NMR spectrum
   Ute Becker             : Parallelization
   Giovanni Bistoni       : ED, misc. LED, open-shell LED, HFLD
   Martin Brehm           : Molecular dynamics
   Dmytro Bykov           : SCF Hessian
   Vijay G. Chilkuri      : MRCI spin determinant printing, contributions to CSF-ICE
   Dipayan Datta          : RHF DLPNO-CCSD density
   Achintya Kumar Dutta   : EOM-CC, STEOM-CC
   Dmitry Ganyushin       : Spin-Orbit,Spin-Spin,Magnetic field MRCI
   Miquel Garcia          : C-PCM and meta-GGA Hessian, CC/C-PCM, Gaussian charge scheme
   Yang Guo               : DLPNO-NEVPT2, F12-NEVPT2, CIM, IAO-localization
   Andreas Hansen         : Spin unrestricted coupled pair/coupled cluster methods
   Benjamin Helmich-Paris : MC-RPA, TRAH-SCF, COSX integrals
   Lee Huntington         : MR-EOM, pCC
   Robert Izsak           : Overlap fitted RIJCOSX, COSX-SCS-MP3, EOM
   Marcus Kettner         : VPT2
   Christian Kollmar      : KDIIS, OOCD, Brueckner-CCSD(T), CCSD density, CASPT2, CASPT2-K
   Simone Kossmann        : Meta GGA functionals, TD-DFT gradient, OOMP2, MP2 Hessian
   Martin Krupicka        : Initial AUTO-CI
   Lucas Lang             : DCDCAS
   Marvin Lechner         : AUTO-CI (C++ implementation), FIC-MRCC
   Dagmar Lenk            : GEPOL surface, SMD
   Dimitrios Liakos       : Extrapolation schemes; Compound Job, initial MDCI parallelization
   Dimitrios Manganas     : Further ROCIS development; embedding schemes
   Dimitrios Pantazis     : SARC Basis sets
   Anastasios Papadopoulos: AUTO-CI, single reference methods and gradients
   Taras Petrenko         : DFT Hessian,TD-DFT gradient, ASA, ECA, R-Raman, ABS, FL, XAS/XES, NRVS
   Peter Pinski           : DLPNO-MP2, DLPNO-MP2 Gradient
   Christoph Reimann      : Effective Core Potentials
   Marius Retegan         : Local ZFS, SOC
   Christoph Riplinger    : Optimizer, TS searches, QM/MM, DLPNO-CCSD(T), (RO)-DLPNO pert. Triples
   Tobias Risthaus        : Range-separated hybrids, TD-DFT gradient, RPA, STAB
   Michael Roemelt        : Original ROCIS implementation
   Masaaki Saitow         : Open-shell DLPNO-CCSD energy and density
   Barbara Sandhoefer     : DKH picture change effects
   Avijit Sen             : IP-ROCIS
   Kantharuban Sivalingam : CASSCF convergence, NEVPT2, FIC-MRCI
   Bernardo de Souza      : ESD, SOC TD-DFT
   Georgi Stoychev        : AutoAux, RI-MP2 NMR, DLPNO-MP2 response
   Willem Van den Heuvel  : Paramagnetic NMR
   Boris Wezisla          : Elementary symmetry handling
   Frank Wennmohs         : Technical directorship


 We gratefully acknowledge several colleagues who have allowed us to
 interface, adapt or use parts of their codes:
   Stefan Grimme, W. Hujo, H. Kruse, P. Pracht,  : VdW corrections, initial TS optimization,
                  C. Bannwarth, S. Ehlert          DFT functionals, gCP, sTDA/sTD-DF
   Ed Valeev, F. Pavosevic, A. Kumar             : LibInt (2-el integral package), F12 methods
   Garnet Chan, S. Sharma, J. Yang, R. Olivares  : DMRG
   Ulf Ekstrom                                   : XCFun DFT Library
   Mihaly Kallay                                 : mrcc  (arbitrary order and MRCC methods)
   Jiri Pittner, Ondrej Demel                    : Mk-CCSD
   Frank Weinhold                                : gennbo (NPA and NBO analysis)
   Christopher J. Cramer and Donald G. Truhlar   : smd solvation model
   Lars Goerigk                                  : TD-DFT with DH, B97 family of functionals
   V. Asgeirsson, H. Jonsson                     : NEB implementation
   FAccTs GmbH                                   : IRC, NEB, NEB-TS, DLPNO-Multilevel, CI-OPT
                                                   MM, QMMM, 2- and 3-layer-ONIOM, Crystal-QMMM,
                                                   LR-CPCM, SF, NACMEs, symmetry and pop. for TD-DFT,
                                                   nearIR, NL-DFT gradient (VV10), updates on ESD,
                                                   ML-optimized integration grids
   S Lehtola, MJT Oliveira, MAL Marques          : LibXC Library
   Liviu Ungur et al                             : ANISO software


 Your calculation uses the libint2 library for the computation of 2-el integrals
 For citations please refer to: http://libint.valeyev.net

 Your ORCA version has been built with support for libXC version: 5.1.0
 For citations please refer to: https://tddft.org/programs/libxc/

 This ORCA versions uses:
   CBLAS   interface :  Fast vector & matrix operations
   LAPACKE interface :  Fast linear algebra routines
   SCALAPACK package :  Parallel linear algebra routines
   Shared memory     :  Shared parallel matrices
   BLAS/LAPACK       :  OpenBLAS 0.3.15  USE64BITINT DYNAMIC_ARCH NO_AFFINITY Barcelona SINGLE_THREADED
        Core in use  :  Barcelona
   Copyright (c) 2011-2014, The OpenBLAS Project




***************************************
The coordinates will be read from file: init_acetone.xyz
***************************************


Your calculation utilizes the atom-pairwise dispersion correction
with the Becke-Johnson damping scheme (D3BJ)
Cite in your paper:
S.Grimme, S.Ehrlich, L.Goerigk, J Comput Chem, (2011), 32, 1456–1465 
S.Grimme, J.Antony, S.Ehrlich and H.Krieg, J.Chem.Phys., 132, (2010), 154104 
   

================================================================================

----- Orbital basis set information -----
Your calculation utilizes the basis: def2-TZVP
   F. Weigend and R. Ahlrichs, Phys. Chem. Chem. Phys. 7, 3297 (2005).

----- AuxJ basis set information -----
Your calculation utilizes the auxiliary basis: def2/J
   F. Weigend, Phys. Chem. Chem. Phys. 8, 1057 (2006).

================================================================================
                                        WARNINGS
                       Please study these warnings very carefully!
================================================================================

WARNING: Old DensityContainer found on disk!
         Will remove this file - 
         If you want to keep old densities, please start your calculation with a different basename. 


WARNING: The environment variable RSH_COMMAND is not set!
  ===> : All Displacements for the Numerical Hessian or Gradient calculation
         will be started on localhost

WARNING: Geometry Optimization
  ===> : Switching off AutoStart
         For restart on a previous wavefunction, please use MOREAD

INFO   : the flag for use of the SHARK integral package has been found!

================================================================================
                                       INPUT FILE
================================================================================
NAME = acetone.inp
|  1> !BLYP D3BJ def2-TZVP Opt NumFreq xyzfile
|  2> 
|  3> %Freq
|  4> Temp 298.15
|  5> end
|  6> 
|  7> %pal
|  8> nprocs 6
|  9> end
| 10> 
| 11> *xyzfile 0 1 init_acetone.xyz
| 12> 
| 13>                          ****END OF INPUT****
================================================================================

                       *****************************
                       * Geometry Optimization Run *
                       *****************************

Geometry optimization settings:
Update method            Update   .... BFGS
Choice of coordinates    CoordSys .... Z-matrix Internals
Initial Hessian          InHess   .... Almoef's Model

Convergence Tolerances:
Energy Change            TolE     ....  5.0000e-06 Eh
Max. Gradient            TolMAXG  ....  3.0000e-04 Eh/bohr
RMS Gradient             TolRMSG  ....  1.0000e-04 Eh/bohr
Max. Displacement        TolMAXD  ....  4.0000e-03 bohr
RMS Displacement         TolRMSD  ....  2.0000e-03 bohr
Strict Convergence                ....  False
------------------------------------------------------------------------------
                        ORCA OPTIMIZATION COORDINATE SETUP
------------------------------------------------------------------------------

The optimization will be done in new redundant internal coordinates
Making redundant internal coordinates   ...  (new redundants) done
Evaluating the initial hessian          ...  (Almloef) done
Evaluating the coordinates              ...  done
Calculating the B-matrix                .... done
Calculating the G-matrix                .... done
Diagonalizing the G-matrix              .... done
The first mode is                       ....   12
The number of degrees of freedom        ....   24

    -----------------------------------------------------------------
                    Redundant Internal Coordinates


    -----------------------------------------------------------------
         Definition                    Initial Value    Approx d2E/dq
    -----------------------------------------------------------------
      1. B(C   2,O   0)                  1.2210         1.041057   
      2. B(C   2,C   1)                  1.5248         0.380713   
      3. B(C   3,C   2)                  1.5248         0.380758   
      4. B(H   4,C   1)                  1.1002         0.346902   
      5. B(H   5,C   1)                  1.0936         0.355319   
      6. B(H   6,C   1)                  1.0989         0.348472   
      7. B(H   7,C   3)                  1.1000         0.347054   
      8. B(H   8,C   3)                  1.0991         0.348269   
      9. B(H   9,C   3)                  1.0936         0.355374   
     10. A(H   5,C   1,H   6)          110.1264         0.288740   
     11. A(H   4,C   1,H   6)          106.7291         0.287659   
     12. A(C   2,C   1,H   4)          109.5560         0.323340   
     13. A(C   2,C   1,H   5)          110.1314         0.324615   
     14. A(C   2,C   1,H   6)          110.9160         0.323580   
     15. A(H   4,C   1,H   5)          109.3106         0.288536   
     16. A(C   1,C   2,C   3)          116.3454         0.365720   
     17. A(O   0,C   2,C   3)          121.8240         0.433614   
     18. A(O   0,C   2,C   1)          121.8306         0.433605   
     19. A(H   7,C   3,H   9)          109.4071         0.288563   
     20. A(C   2,C   3,H   9)          110.1166         0.324630   
     21. A(H   7,C   3,H   8)          106.7105         0.287653   
     22. A(C   2,C   3,H   8)          110.7736         0.323555   
     23. A(H   8,C   3,H   9)          110.0721         0.288721   
     24. A(C   2,C   3,H   7)          109.6943         0.323370   
     25. D(C   3,C   2,C   1,H   5)   -172.8437         0.010813   
     26. D(C   3,C   2,C   1,H   4)     66.8926         0.010813   
     27. D(O   0,C   2,C   1,H   4)   -113.1710         0.010813   
     28. D(C   3,C   2,C   1,H   6)    -50.6738         0.010813   
     29. D(O   0,C   2,C   1,H   6)    129.2626         0.010813   
     30. D(O   0,C   2,C   1,H   5)      7.0927         0.010813   
     31. D(H   7,C   3,C   2,O   0)   -114.3303         0.010816   
     32. D(H   9,C   3,C   2,C   1)   -173.9326         0.010816   
     33. D(H   9,C   3,C   2,O   0)      6.1310         0.010816   
     34. D(H   8,C   3,C   2,C   1)    -51.9370         0.010816   
     35. D(H   8,C   3,C   2,O   0)    128.1267         0.010816   
     36. D(H   7,C   3,C   2,C   1)     65.6061         0.010816   
    -----------------------------------------------------------------

Number of atoms                         .... 10
Number of degrees of freedom            .... 36

         *************************************************************
         *                GEOMETRY OPTIMIZATION CYCLE   1            *
         *************************************************************
---------------------------------
CARTESIAN COORDINATES (ANGSTROEM)
---------------------------------
  O     -0.502978   -3.466849   -1.400802
  C      1.167419   -3.130654   -3.096893
  C     -0.158060   -2.850736   -2.396956
  C     -1.029964   -1.760303   -3.009982
  H      1.830866   -2.259432   -2.991199
  H      1.648739   -4.007515   -2.654749
  H      1.017117   -3.284914   -4.174516
  H     -1.371342   -2.075440   -4.007102
  H     -0.454704   -0.834438   -3.150897
  H     -1.897682   -1.569660   -2.372273

----------------------------
CARTESIAN COORDINATES (A.U.)
----------------------------
  NO LB      ZA    FRAG     MASS         X           Y           Z
   0 O     8.0000    0    15.999   -0.950491   -6.551395   -2.647132
   1 C     6.0000    0    12.011    2.206102   -5.916079   -5.852280
   2 C     6.0000    0    12.011   -0.298690   -5.387110   -4.529590
   3 C     6.0000    0    12.011   -1.946350   -3.326491   -5.688042
   4 H     1.0000    0     1.008    3.459835   -4.269708   -5.652547
   5 H     1.0000    0     1.008    3.115665   -7.573106   -5.016749
   6 H     1.0000    0     1.008    1.922073   -6.207588   -7.888692
   7 H     1.0000    0     1.008   -2.591461   -3.922013   -7.572325
   8 H     1.0000    0     1.008   -0.859266   -1.576859   -5.954332
   9 H     1.0000    0     1.008   -3.586099   -2.966228   -4.482946

--------------------------------
INTERNAL COORDINATES (ANGSTROEM)
--------------------------------
 O      0   0   0     0.000000000000     0.00000000     0.00000000
 C      1   0   0     2.404158458986     0.00000000     0.00000000
 C      1   2   0     1.221018610509    32.60673019     0.00000000
 C      3   1   2     1.524815264018   121.82397026   179.93288858
 H      2   1   3     1.100164040827   117.51326400    77.62647012
 H      2   1   3     1.093638638883    84.74707137   186.68551248
 H      2   1   3     1.098935015792   125.24988312   297.67223281
 H      4   3   1     1.100044800021   109.69425750   245.66972403
 H      4   3   1     1.099093764449   110.77358859   128.12667101
 H      4   3   1     1.093595926133   110.11663237     6.13098081

---------------------------
INTERNAL COORDINATES (A.U.)
---------------------------
 O      0   0   0     0.000000000000     0.00000000     0.00000000
 C      1   0   0     4.543201070034     0.00000000     0.00000000
 C      1   2   0     2.307390778283    32.60673019     0.00000000
 C      3   1   2     2.881483253816   121.82397026   179.93288858
 H      2   1   3     2.079008739551   117.51326400    77.62647012
 H      2   1   3     2.066677516963    84.74707137   186.68551248
 H      2   1   3     2.076686218823   125.24988312   297.67223281
 H      4   3   1     2.078783407084   109.69425750   245.66972403
 H      4   3   1     2.076986210309   110.77358859   128.12667101
 H      4   3   1     2.066596801563   110.11663237     6.13098081

---------------------
BASIS SET INFORMATION
---------------------
There are 3 groups of distinct atoms

 Group   1 Type O   : 11s6p2d1f contracted to 5s3p2d1f pattern {62111/411/11/1}
 Group   2 Type C   : 11s6p2d1f contracted to 5s3p2d1f pattern {62111/411/11/1}
 Group   3 Type H   : 5s1p contracted to 3s1p pattern {311/1}

Atom   0O    basis set group =>   1
Atom   1C    basis set group =>   2
Atom   2C    basis set group =>   2
Atom   3C    basis set group =>   2
Atom   4H    basis set group =>   3
Atom   5H    basis set group =>   3
Atom   6H    basis set group =>   3
Atom   7H    basis set group =>   3
Atom   8H    basis set group =>   3
Atom   9H    basis set group =>   3
---------------------------------
AUXILIARY/J BASIS SET INFORMATION
---------------------------------
There are 3 groups of distinct atoms

 Group   1 Type O   : 12s5p4d2f1g contracted to 6s4p3d1f1g pattern {711111/2111/211/2/1}
 Group   2 Type C   : 12s5p4d2f1g contracted to 6s4p3d1f1g pattern {711111/2111/211/2/1}
 Group   3 Type H   : 5s2p1d contracted to 3s1p1d pattern {311/2/1}

Atom   0O    basis set group =>   1
Atom   1C    basis set group =>   2
Atom   2C    basis set group =>   2
Atom   3C    basis set group =>   2
Atom   4H    basis set group =>   3
Atom   5H    basis set group =>   3
Atom   6H    basis set group =>   3
Atom   7H    basis set group =>   3
Atom   8H    basis set group =>   3
Atom   9H    basis set group =>   3


           ************************************************************
           *        Program running with 6 parallel MPI-processes     *
           *              working on a common directory               *
           ************************************************************
------------------------------------------------------------------------------
                           ORCA GTO INTEGRAL CALCULATION
                           -- RI-GTO INTEGRALS CHOSEN --
------------------------------------------------------------------------------
------------------------------------------------------------------------------
                   ___                                                        
                  /   \      - P O W E R E D   B Y -                         
                 /     \                                                     
                 |  |  |   _    _      __       _____    __    __             
                 |  |  |  | |  | |    /  \     |  _  \  |  |  /  |          
                  \  \/   | |  | |   /    \    | | | |  |  | /  /          
                 / \  \   | |__| |  /  /\  \   | |_| |  |  |/  /          
                |  |  |   |  __  | /  /__\  \  |    /   |      \           
                |  |  |   | |  | | |   __   |  |    \   |  |\   \          
                \     /   | |  | | |  |  |  |  | |\  \  |  | \   \       
                 \___/    |_|  |_| |__|  |__|  |_| \__\ |__|  \__/        
                                                                              
                      - O R C A' S   B I G   F R I E N D -                    
                                      &                                       
                       - I N T E G R A L  F E E D E R -                       
                                                                              
 v1 FN, 2020, v2 2021                                                         
------------------------------------------------------------------------------


Reading SHARK input file acetone.SHARKINP.tmp ... ok
----------------------
SHARK INTEGRAL PACKAGE
----------------------

Number of atoms                             ...     10
Number of basis functions                   ...    160
Number of shells                            ...     68
Maximum angular momentum                    ...      3
Integral batch strategy                     ... SHARK/LIBINT Hybrid
RI-J (if used) integral strategy            ... SPLIT-RIJ (Revised 2003 algorithm where possible)
Printlevel                                  ...      1
Contraction scheme used                     ... SEGMENTED contraction
Coulomb Range Separation                    ... NOT USED
Exchange Range Separation                   ... NOT USED
Finite Nucleus Model                        ... NOT USED
Auxiliary Coulomb fitting basis             ... AVAILABLE
   # of basis functions in Aux-J            ...    262
   # of shells in Aux-J                     ...     90
   Maximum angular momentum in Aux-J        ...      4
Auxiliary J/K fitting basis                 ... NOT available
Auxiliary Correlation fitting basis         ... NOT available
Auxiliary 'external' fitting basis          ... NOT available
Integral threshold                          ...     2.500000e-11
Primitive cut-off                           ...     2.500000e-12
Primitive pair pre-selection threshold      ...     2.500000e-12

Calculating pre-screening integrals         ... done (  0.0 sec) Dimension = 68
Organizing shell pair data                  ... done (  0.0 sec)
Shell pair information
Total number of shell pairs                 ...      2346
Shell pairs after pre-screening             ...      2298
Total number of primitive shell pairs       ...      6892
Primitive shell pairs kept                  ...      5522
          la=0 lb=0:    703 shell pairs
          la=1 lb=0:    676 shell pairs
          la=1 lb=1:    171 shell pairs
          la=2 lb=0:    302 shell pairs
          la=2 lb=1:    144 shell pairs
          la=2 lb=2:     36 shell pairs
          la=3 lb=0:    152 shell pairs
          la=3 lb=1:     72 shell pairs
          la=3 lb=2:     32 shell pairs
          la=3 lb=3:     10 shell pairs

Calculating one electron integrals          ... done (  0.0 sec)
Calculating RI/J V-Matrix + Cholesky decomp.... done (  0.0 sec)
Calculating Nuclear repulsion               ... done (  0.0 sec) ENN=    118.618638871415 Eh

SHARK setup successfully completed in   0.2 seconds

Maximum memory used throughout the entire GTOINT-calculation: 15.9 MB


           ************************************************************
           *        Program running with 6 parallel MPI-processes     *
           *              working on a common directory               *
           ************************************************************
-------------------------------------------------------------------------------
                                 ORCA SCF
-------------------------------------------------------------------------------

------------
SCF SETTINGS
------------
Hamiltonian:
 Density Functional     Method          .... DFT(GTOs)
 Exchange Functional    Exchange        .... B88
   X-Alpha parameter    XAlpha          ....  0.666667
   Becke's b parameter  XBeta           ....  0.004200
 Correlation Functional Correlation     .... LYP
 Gradients option       PostSCFGGA      .... off
   Density functional embedding theory  .... OFF
   NL short-range parameter             ....  4.000000
 RI-approximation to the Coulomb term is turned on
   Number of AuxJ basis functions       .... 262


General Settings:
 Integral files         IntName         .... acetone
 Hartree-Fock type      HFTyp           .... RHF
 Total Charge           Charge          ....    0
 Multiplicity           Mult            ....    1
 Number of Electrons    NEL             ....   32
 Basis Dimension        Dim             ....  160
 Nuclear Repulsion      ENuc            ....    118.6186388714 Eh

Convergence Acceleration:
 DIIS                   CNVDIIS         .... on
   Start iteration      DIISMaxIt       ....    12
   Startup error        DIISStart       ....  0.200000
   # of expansion vecs  DIISMaxEq       ....     5
   Bias factor          DIISBfac        ....   1.050
   Max. coefficient     DIISMaxC        ....  10.000
 Trust-Rad. Augm. Hess. CNVTRAH         .... auto
   Auto Start mean grad. ratio tolernc. ....  1.125000
   Auto Start start iteration           ....    20
   Auto Start num. interpolation iter.  ....    10
   Max. Number of Micro iterations      ....    16
   Max. Number of Macro iterations      .... Maxiter - #DIIS iter
   Number of Davidson start vectors     ....     2
   Converg. threshold I  (grad. norm)   ....   1.000e-05
   Converg. threshold II (energy diff.) ....   1.000e-08
   Grad. Scal. Fac. for Micro threshold ....   0.100
   Minimum threshold for Micro iter.    ....   0.010
   NR start threshold (gradient norm)   ....   0.001
   Initial trust radius                 ....   0.400
   Minimum AH scaling param. (alpha)    ....   1.000
   Maximum AH scaling param. (alpha)    .... 1000.000
   Orbital update algorithm             .... Taylor
   White noise on init. David. guess    .... on
   Maximum white noise                  ....   0.010
   Quad. conv. algorithm                .... NR
 SOSCF                  CNVSOSCF        .... on
   Start iteration      SOSCFMaxIt      ....   150
   Startup grad/error   SOSCFStart      ....  0.003300
 Level Shifting         CNVShift        .... on
   Level shift para.    LevelShift      ....    0.2500
   Turn off err/grad.   ShiftErr        ....    0.0010
 Zerner damping         CNVZerner       .... off
 Static damping         CNVDamp         .... on
   Fraction old density DampFac         ....    0.7000
   Max. Damping (<1)    DampMax         ....    0.9800
   Min. Damping (>=0)   DampMin         ....    0.0000
   Turn off err/grad.   DampErr         ....    0.1000
 Fernandez-Rico         CNVRico         .... off

SCF Procedure:
 Maximum # iterations   MaxIter         ....   125
 SCF integral mode      SCFMode         .... Direct
   Integral package                     .... SHARK and LIBINT hybrid scheme
 Reset frequency        DirectResetFreq ....    20
 Integral Threshold     Thresh          ....  2.500e-11 Eh
 Primitive CutOff       TCut            ....  2.500e-12 Eh

Convergence Tolerance:
 Convergence Check Mode ConvCheckMode   .... Total+1el-Energy
 Convergence forced     ConvForced      .... 0
 Energy Change          TolE            ....  1.000e-08 Eh
 1-El. energy change                    ....  1.000e-05 Eh
 Orbital Gradient       TolG            ....  1.000e-05
 Orbital Rotation angle TolX            ....  1.000e-05
 DIIS Error             TolErr          ....  5.000e-07


Diagonalization of the overlap matrix:
Smallest eigenvalue                        ... 4.350e-04
Time for diagonalization                   ...    0.008 sec
Threshold for overlap eigenvalues          ... 1.000e-08
Number of eigenvalues below threshold      ... 0
Time for construction of square roots      ...    0.004 sec
Total time needed                          ...    0.036 sec

Time for model grid setup =    0.035 sec

------------------------------
INITIAL GUESS: MODEL POTENTIAL
------------------------------
Loading Hartree-Fock densities                     ... done
Calculating cut-offs                               ... done
Initializing the effective Hamiltonian             ... done
Setting up the integral package (SHARK)            ... done
Starting the Coulomb interaction                   ... done (   0.0 sec)
Reading the grid                                   ... done
Mapping shells                                     ... done
Starting the XC term evaluation                    ... done (   0.0 sec)
  promolecular density results
     # of electrons  =     31.993900123
     EX              =    -25.354486989
     EC              =     -1.048123636
     EX+EC           =    -26.402610625
Transforming the Hamiltonian                       ... done (   0.0 sec)
Diagonalizing the Hamiltonian                      ... done (   0.0 sec)
Back transforming the eigenvectors                 ... done (   0.0 sec)
Now organizing SCF variables                       ... done
                      ------------------
                      INITIAL GUESS DONE (   0.1 sec)
                      ------------------
-------------------
DFT GRID GENERATION
-------------------

General Integration Accuracy     IntAcc      ... 4.388
Radial Grid Type                 RadialGrid  ... OptM3 with GC (2021)
Angular Grid (max. ang.)         AngularGrid ... 4 (Lebedev-302)
Angular grid pruning method      GridPruning ... 4 (adaptive)
Weight generation scheme         WeightScheme... Becke
Basis function cutoff            BFCut       ... 1.0000e-11
Integration weight cutoff        WCut        ... 1.0000e-14
Angular grids for H and He will be reduced by one unit
Partially contracted basis set               ... off
Rotationally invariant grid construction     ... off

Total number of grid points                  ...    43793
Total number of batches                      ...      688
Average number of points per batch           ...       63
Average number of grid points per atom       ...     4379
Time for grid setup =    0.165 sec

--------------
SCF ITERATIONS
--------------
ITER       Energy         Delta-E        Max-DP      RMS-DP      [F,P]     Damp
               ***  Starting incremental Fock matrix formation  ***
  0   -192.9665994101   0.000000000000 0.23535244  0.00422590  0.2728403 0.7000
  1   -193.0661097068  -0.099510296690 0.19145259  0.00327061  0.0899456 0.7000
                               ***Turning on DIIS***
  2   -193.0935872428  -0.027477535994 0.12077927  0.00309071  0.0297930 0.0000
  3   -193.1451843704  -0.051597127571 0.18134021  0.00288883  0.0600658 0.0000
  4   -193.1560366028  -0.010852232440 0.04151964  0.00071919  0.0329375 0.0000
  5   -193.1584835516  -0.002446948752 0.01427691  0.00024847  0.0050524 0.0000
                      *** Initiating the SOSCF procedure ***
                           *** Shutting down DIIS ***
                      *** Re-Reading the Fockian *** 
                      *** Removing any level shift *** 
ITER      Energy       Delta-E        Grad      Rot      Max-DP    RMS-DP
  6   -193.15860392  -0.0001203643  0.000411  0.000411  0.013034  0.000216
               *** Restarting incremental Fock matrix formation ***
  7   -193.15861119  -0.0000072720  0.000235  0.000926  0.000443  0.000016
  8   -193.15860842   0.0000027709  0.000765  0.000784  0.001000  0.000020
  9   -193.15861161  -0.0000031976  0.000080  0.000171  0.001109  0.000019
 10   -193.15861147   0.0000001413  0.000093  0.000088  0.000662  0.000012
 11   -193.15861171  -0.0000002347  0.000004  0.000006  0.000007  0.000000
 12   -193.15861171   0.0000000002  0.000003  0.000003  0.000004  0.000000
                 **** Energy Check signals convergence ****
              ***Rediagonalizing the Fockian in SOSCF/NRSCF***

               *****************************************************
               *                     SUCCESS                       *
               *           SCF CONVERGED AFTER  13 CYCLES          *
               *****************************************************


----------------
TOTAL SCF ENERGY
----------------

Total Energy       :         -193.15861171 Eh           -5256.11304 eV

Components:
Nuclear Repulsion  :          118.61863887 Eh            3227.77726 eV
Electronic Energy  :         -311.77725058 Eh           -8483.89030 eV
One Electron Energy:         -495.90860106 Eh          -13494.35907 eV
Two Electron Energy:          184.13135048 Eh            5010.46877 eV

Virial components:
Potential Energy   :         -385.58081092 Eh          -10492.18728 eV
Kinetic Energy     :          192.42219921 Eh            5236.07424 eV
Virial Ratio       :            2.00382707


DFT components:
N(Alpha)           :       15.999991637125 electrons
N(Beta)            :       15.999991637125 electrons
N(Total)           :       31.999983274250 electrons
E(X)               :      -25.957303813343 Eh       
E(C)               :       -1.058210320813 Eh       
E(XC)              :      -27.015514134155 Eh       
DFET-embed. en.    :        0.000000000000 Eh       

---------------
SCF CONVERGENCE
---------------

  Last Energy change         ...   -2.2102e-09  Tolerance :   1.0000e-08
  Last MAX-Density change    ...    1.7579e-06  Tolerance :   1.0000e-07
  Last RMS-Density change    ...    5.3578e-08  Tolerance :   5.0000e-09
  Last Orbital Gradient      ...    1.2853e-07  Tolerance :   1.0000e-05
  Last Orbital Rotation      ...    2.8265e-07  Tolerance :   1.0000e-05

             **** THE GBW FILE WAS UPDATED (acetone.gbw) ****
             **** DENSITY acetone.scfp WAS UPDATED ****
             **** ENERGY FILE WAS UPDATED (acetone.en.tmp) ****
             **** THE GBW FILE WAS UPDATED (acetone.gbw) ****
             **** DENSITY acetone.scfp WAS UPDATED ****
----------------
ORBITAL ENERGIES
----------------

  NO   OCC          E(Eh)            E(eV) 
   0   2.0000     -18.761371      -510.5229 
   1   2.0000      -9.996837      -272.0278 
   2   2.0000      -9.914532      -269.7881 
   3   2.0000      -9.914519      -269.7878 
   4   2.0000      -0.942875       -25.6569 
   5   2.0000      -0.692396       -18.8410 
   6   2.0000      -0.638419       -17.3723 
   7   2.0000      -0.474381       -12.9086 
   8   2.0000      -0.410791       -11.1782 
   9   2.0000      -0.406930       -11.0731 
  10   2.0000      -0.398391       -10.8408 
  11   2.0000      -0.359071        -9.7708 
  12   2.0000      -0.347769        -9.4633 
  13   2.0000      -0.335228        -9.1220 
  14   2.0000      -0.310345        -8.4449 
  15   2.0000      -0.204276        -5.5586 
  16   0.0000      -0.055985        -1.5234 
  17   0.0000       0.005900         0.1606 
  18   0.0000       0.056862         1.5473 
  19   0.0000       0.071991         1.9590 
  20   0.0000       0.074154         2.0178 
  21   0.0000       0.097982         2.6662 
  22   0.0000       0.101554         2.7634 
  23   0.0000       0.105044         2.8584 
  24   0.0000       0.136898         3.7252 
  25   0.0000       0.154210         4.1963 
  26   0.0000       0.177834         4.8391 
  27   0.0000       0.191498         5.2109 
  28   0.0000       0.194599         5.2953 
  29   0.0000       0.257888         7.0175 
  30   0.0000       0.260859         7.0983 
  31   0.0000       0.277779         7.5588 
  32   0.0000       0.329445         8.9646 
  33   0.0000       0.333891         9.0856 
  34   0.0000       0.358907         9.7664 
  35   0.0000       0.364802         9.9268 
  36   0.0000       0.397035        10.8039 
  37   0.0000       0.399847        10.8804 
  38   0.0000       0.408612        11.1189 
  39   0.0000       0.411864        11.2074 
  40   0.0000       0.417208        11.3528 
  41   0.0000       0.437885        11.9155 
  42   0.0000       0.503383        13.6977 
  43   0.0000       0.507892        13.8204 
  44   0.0000       0.525252        14.2928 
  45   0.0000       0.565060        15.3761 
  46   0.0000       0.619624        16.8608 
  47   0.0000       0.634460        17.2645 
  48   0.0000       0.686408        18.6781 
  49   0.0000       0.752484        20.4761 
  50   0.0000       0.781082        21.2543 
  51   0.0000       0.792606        21.5679 
  52   0.0000       0.858702        23.3665 
  53   0.0000       0.886556        24.1244 
  54   0.0000       0.924132        25.1469 
  55   0.0000       0.926424        25.2093 
  56   0.0000       0.945613        25.7314 
  57   0.0000       0.999472        27.1970 
  58   0.0000       1.052441        28.6384 
  59   0.0000       1.058204        28.7952 
  60   0.0000       1.076427        29.2911 
  61   0.0000       1.165320        31.7100 
  62   0.0000       1.324917        36.0528 
  63   0.0000       1.343986        36.5717 
  64   0.0000       1.360230        37.0137 
  65   0.0000       1.425579        38.7920 
  66   0.0000       1.438804        39.1519 
  67   0.0000       1.449192        39.4345 
  68   0.0000       1.456229        39.6260 
  69   0.0000       1.468879        39.9702 
  70   0.0000       1.485049        40.4102 
  71   0.0000       1.486203        40.4416 
  72   0.0000       1.501228        40.8505 
  73   0.0000       1.559670        42.4408 
  74   0.0000       1.578803        42.9614 
  75   0.0000       1.620857        44.1058 
  76   0.0000       1.768749        48.1301 
  77   0.0000       1.787137        48.6305 
  78   0.0000       1.792474        48.7757 
  79   0.0000       1.870836        50.9080 
  80   0.0000       1.928982        52.4903 
  81   0.0000       1.942695        52.8634 
  82   0.0000       1.946934        52.9788 
  83   0.0000       2.002748        54.4975 
  84   0.0000       2.026927        55.1555 
  85   0.0000       2.079032        56.5733 
  86   0.0000       2.087383        56.8006 
  87   0.0000       2.104003        57.2528 
  88   0.0000       2.115383        57.5625 
  89   0.0000       2.242018        61.0084 
  90   0.0000       2.255489        61.3750 
  91   0.0000       2.259272        61.4779 
  92   0.0000       2.304490        62.7084 
  93   0.0000       2.362519        64.2874 
  94   0.0000       2.368694        64.4554 
  95   0.0000       2.431540        66.1656 
  96   0.0000       2.442833        66.4729 
  97   0.0000       2.473451        67.3060 
  98   0.0000       2.474965        67.3472 
  99   0.0000       2.556910        69.5771 
 100   0.0000       2.608423        70.9788 
 101   0.0000       2.658530        72.3423 
 102   0.0000       2.689581        73.1872 
 103   0.0000       2.712769        73.8182 
 104   0.0000       2.755319        74.9761 
 105   0.0000       2.818370        76.6917 
 106   0.0000       2.883571        78.4660 
 107   0.0000       2.890758        78.6615 
 108   0.0000       2.912431        79.2513 
 109   0.0000       2.982124        81.1477 
 110   0.0000       2.983106        81.1744 
 111   0.0000       2.998136        81.5834 
 112   0.0000       3.016055        82.0710 
 113   0.0000       3.035226        82.5927 
 114   0.0000       3.044022        82.8321 
 115   0.0000       3.137068        85.3640 
 116   0.0000       3.194501        86.9268 
 117   0.0000       3.216340        87.5210 
 118   0.0000       3.232908        87.9719 
 119   0.0000       3.277945        89.1974 
 120   0.0000       3.286586        89.4325 
 121   0.0000       3.323393        90.4341 
 122   0.0000       3.332318        90.6770 
 123   0.0000       3.387076        92.1670 
 124   0.0000       3.421912        93.1150 
 125   0.0000       3.444117        93.7192 
 126   0.0000       3.558582        96.8339 
 127   0.0000       3.659040        99.5675 
 128   0.0000       3.757393       102.2439 
 129   0.0000       3.759041       102.2887 
 130   0.0000       3.796875       103.3182 
 131   0.0000       3.871085       105.3376 
 132   0.0000       3.878974       105.5523 
 133   0.0000       3.888402       105.8088 
 134   0.0000       3.948673       107.4489 
 135   0.0000       4.191610       114.0595 
 136   0.0000       4.220929       114.8573 
 137   0.0000       4.254199       115.7626 
 138   0.0000       4.280149       116.4688 
 139   0.0000       4.302907       117.0880 
 140   0.0000       4.402042       119.7857 
 141   0.0000       4.534168       123.3810 
 142   0.0000       4.654047       126.6431 
 143   0.0000       4.684806       127.4801 
 144   0.0000       5.086541       138.4118 
 145   0.0000       5.091315       138.5417 
 146   0.0000       5.470827       148.8688 
 147   0.0000       5.552114       151.0807 
 148   0.0000       5.995042       163.1334 
 149   0.0000       6.172134       167.9523 
 150   0.0000       6.247874       170.0133 
 151   0.0000       6.359282       173.0449 
 152   0.0000       6.367121       173.2582 
 153   0.0000       6.683119       181.8569 
 154   0.0000       6.856137       186.5650 
 155   0.0000       6.919841       188.2984 
 156   0.0000      21.972270       597.8959 
 157   0.0000      21.974702       597.9620 
 158   0.0000      22.604625       615.1031 
 159   0.0000      43.367432      1180.0878 

                    ********************************
                    * MULLIKEN POPULATION ANALYSIS *
                    ********************************

-----------------------
MULLIKEN ATOMIC CHARGES
-----------------------
   0 O :   -0.254110
   1 C :   -0.295142
   2 C :    0.184214
   3 C :   -0.295144
   4 H :    0.110356
   5 H :    0.115544
   6 H :    0.104306
   7 H :    0.110182
   8 H :    0.104462
   9 H :    0.115334
Sum of atomic charges:   -0.0000000

--------------------------------
MULLIKEN REDUCED ORBITAL CHARGES
--------------------------------
  0 O s       :     3.804677  s :     3.804677
      pz      :     1.320039  p :     4.419434
      px      :     1.651534
      py      :     1.447861
      dz2     :     0.009401  d :     0.028363
      dxz     :     0.006026
      dyz     :     0.006787
      dx2y2   :     0.002906
      dxy     :     0.003245
      f0      :     0.000443  f :     0.001637
      f+1     :     0.000218
      f-1     :     0.000267
      f+2     :     0.000267
      f-2     :     0.000256
      f+3     :     0.000101
      f-3     :     0.000085
  1 C s       :     3.253072  s :     3.253072
      pz      :     1.008062  p :     3.008428
      px      :     0.957190
      py      :     1.043176
      dz2     :     0.009655  d :     0.030517
      dxz     :     0.005385
      dyz     :     0.001504
      dx2y2   :     0.004412
      dxy     :     0.009560
      f0      :     0.000757  f :     0.003126
      f+1     :     0.000669
      f-1     :     0.000073
      f+2     :     0.000165
      f-2     :     0.000372
      f+3     :     0.000768
      f-3     :     0.000322
  2 C s       :     3.200207  s :     3.200207
      pz      :     0.756689  p :     2.407740
      px      :     0.862085
      py      :     0.788965
      dz2     :     0.044281  d :     0.190977
      dxz     :     0.049653
      dyz     :     0.031185
      dx2y2   :     0.034430
      dxy     :     0.031428
      f0      :     0.002605  f :     0.016862
      f+1     :     0.003098
      f-1     :     0.002652
      f+2     :     0.002930
      f-2     :     0.002633
      f+3     :     0.000999
      f-3     :     0.001945
  3 C s       :     3.253148  s :     3.253148
      pz      :     1.026986  p :     3.008333
      px      :     1.009246
      py      :     0.972101
      dz2     :     0.006851  d :     0.030535
      dxz     :     0.004092
      dyz     :     0.005423
      dx2y2   :     0.007302
      dxy     :     0.006867
      f0      :     0.000265  f :     0.003128
      f+1     :     0.000477
      f-1     :     0.000507
      f+2     :     0.000339
      f-2     :     0.000632
      f+3     :     0.000621
      f-3     :     0.000285
  4 H s       :     0.868202  s :     0.868202
      pz      :     0.004718  p :     0.021442
      px      :     0.007913
      py      :     0.008812
  5 H s       :     0.863032  s :     0.863032
      pz      :     0.005529  p :     0.021425
      px      :     0.006190
      py      :     0.009705
  6 H s       :     0.874432  s :     0.874432
      pz      :     0.011950  p :     0.021262
      px      :     0.004654
      py      :     0.004659
  7 H s       :     0.868396  s :     0.868396
      pz      :     0.010825  p :     0.021423
      px      :     0.005502
      py      :     0.005096
  8 H s       :     0.874272  s :     0.874272
      pz      :     0.004739  p :     0.021266
      px      :     0.006086
      py      :     0.010441
  9 H s       :     0.863239  s :     0.863239
      pz      :     0.006922  p :     0.021427
      px      :     0.009925
      py      :     0.004581


                     *******************************
                     * LOEWDIN POPULATION ANALYSIS *
                     *******************************

----------------------
LOEWDIN ATOMIC CHARGES
----------------------
   0 O :    0.128328
   1 C :   -0.269132
   2 C :   -0.372505
   3 C :   -0.269118
   4 H :    0.133814
   5 H :    0.127875
   6 H :    0.129551
   7 H :    0.133458
   8 H :    0.129935
   9 H :    0.127793

-------------------------------
LOEWDIN REDUCED ORBITAL CHARGES
-------------------------------
  0 O s       :     3.410778  s :     3.410778
      pz      :     1.409279  p :     4.388069
      px      :     1.555413
      py      :     1.423377
      dz2     :     0.015819  d :     0.066940
      dxz     :     0.016999
      dyz     :     0.020700
      dx2y2   :     0.007400
      dxy     :     0.006022
      f0      :     0.000782  f :     0.005886
      f+1     :     0.000980
      f-1     :     0.001519
      f+2     :     0.001162
      f-2     :     0.001026
      f+3     :     0.000180
      f-3     :     0.000235
  1 C s       :     2.847842  s :     2.847842
      pz      :     1.063091  p :     3.179038
      px      :     1.045081
      py      :     1.070865
      dz2     :     0.063529  d :     0.218789
      dxz     :     0.038640
      dyz     :     0.016078
      dx2y2   :     0.031614
      dxy     :     0.068929
      f0      :     0.003353  f :     0.023463
      f+1     :     0.003993
      f-1     :     0.001435
      f+2     :     0.004559
      f-2     :     0.003600
      f+3     :     0.004209
      f-3     :     0.002313
  2 C s       :     2.791774  s :     2.791774
      pz      :     0.899157  p :     2.724046
      px      :     0.957594
      py      :     0.867295
      dz2     :     0.150028  d :     0.752351
      dxz     :     0.200404
      dyz     :     0.151595
      dx2y2   :     0.135255
      dxy     :     0.115068
      f0      :     0.014408  f :     0.104333
      f+1     :     0.020499
      f-1     :     0.017300
      f+2     :     0.018373
      f-2     :     0.013689
      f+3     :     0.006860
      f-3     :     0.013204
  3 C s       :     2.847861  s :     2.847861
      pz      :     1.068855  p :     3.178986
      px      :     1.058486
      py      :     1.051646
      dz2     :     0.044269  d :     0.218805
      dxz     :     0.044406
      dyz     :     0.031910
      dx2y2   :     0.039846
      dxy     :     0.058374
      f0      :     0.002507  f :     0.023466
      f+1     :     0.002440
      f-1     :     0.004704
      f+2     :     0.003795
      f-2     :     0.003015
      f+3     :     0.004299
      f-3     :     0.002704
  4 H s       :     0.806021  s :     0.806021
      pz      :     0.013511  p :     0.060164
      px      :     0.020447
      py      :     0.026207
  5 H s       :     0.811686  s :     0.811686
      pz      :     0.016302  p :     0.060438
      px      :     0.016397
      py      :     0.027739
  6 H s       :     0.810264  s :     0.810264
      pz      :     0.033455  p :     0.060185
      px      :     0.013188
      py      :     0.013542
  7 H s       :     0.806373  s :     0.806373
      pz      :     0.030359  p :     0.060168
      px      :     0.014945
      py      :     0.014864
  8 H s       :     0.809889  s :     0.809889
      pz      :     0.013714  p :     0.060176
      px      :     0.018612
      py      :     0.027849
  9 H s       :     0.811769  s :     0.811769
      pz      :     0.020622  p :     0.060438
      px      :     0.027207
      py      :     0.012609


                      *****************************
                      * MAYER POPULATION ANALYSIS *
                      *****************************

  NA   - Mulliken gross atomic population
  ZA   - Total nuclear charge
  QA   - Mulliken gross atomic charge
  VA   - Mayer's total valence
  BVA  - Mayer's bonded valence
  FA   - Mayer's free valence

  ATOM       NA         ZA         QA         VA         BVA        FA
  0 O      8.2541     8.0000    -0.2541     2.1984     2.1984    -0.0000
  1 C      6.2951     6.0000    -0.2951     3.6799     3.6799     0.0000
  2 C      5.8158     6.0000     0.1842     4.0619     4.0619    -0.0000
  3 C      6.2951     6.0000    -0.2951     3.6799     3.6799     0.0000
  4 H      0.8896     1.0000     0.1104     0.9737     0.9737    -0.0000
  5 H      0.8845     1.0000     0.1155     1.0036     1.0036     0.0000
  6 H      0.8957     1.0000     0.1043     0.9724     0.9724    -0.0000
  7 H      0.8898     1.0000     0.1102     0.9735     0.9735    -0.0000
  8 H      0.8955     1.0000     0.1045     0.9724     0.9724     0.0000
  9 H      0.8847     1.0000     0.1153     1.0038     1.0038     0.0000

  Mayer bond orders larger than 0.100000
B(  0-O ,  2-C ) :   2.1748 B(  1-C ,  2-C ) :   0.9336 B(  1-C ,  4-H ) :   0.9403 
B(  1-C ,  5-H ) :   0.9727 B(  1-C ,  6-H ) :   0.9440 B(  2-C ,  3-C ) :   0.9338 
B(  3-C ,  7-H ) :   0.9407 B(  3-C ,  8-H ) :   0.9435 B(  3-C ,  9-H ) :   0.9728 


-------
TIMINGS
-------

Total SCF time: 0 days 0 hours 0 min 2 sec 

Total time                  ....       2.117 sec
Sum of individual times     ....       1.942 sec  ( 91.7%)

Fock matrix formation       ....       1.516 sec  ( 71.6%)
  Split-RI-J                ....       0.372 sec  ( 24.5% of F)
  XC integration            ....       1.091 sec  ( 72.0% of F)
    Basis function eval.    ....       0.229 sec  ( 21.0% of XC)
    Density eval.           ....       0.308 sec  ( 28.2% of XC)
    XC-Functional eval.     ....       0.033 sec  (  3.0% of XC)
    XC-Potential eval.      ....       0.265 sec  ( 24.3% of XC)
Diagonalization             ....       0.045 sec  (  2.1%)
Density matrix formation    ....       0.003 sec  (  0.2%)
Population analysis         ....       0.011 sec  (  0.5%)
Initial guess               ....       0.066 sec  (  3.1%)
Orbital Transformation      ....       0.000 sec  (  0.0%)
Orbital Orthonormalization  ....       0.000 sec  (  0.0%)
DIIS solution               ....       0.057 sec  (  2.7%)
SOSCF solution              ....       0.044 sec  (  2.1%)
Grid generation             ....       0.199 sec  (  9.4%)

Maximum memory used throughout the entire SCF-calculation: 15.9 MB


-------------------------------------------------------------------------------
                          DFT DISPERSION CORRECTION                            
                                                                               
                              DFTD3 V3.1  Rev 1                                
                          USING Becke-Johnson damping                          
-------------------------------------------------------------------------------
The BLYP functional is recognized
Active option DFTDOPT                   ...         4   

molecular C6(AA) [au] = 764.475589 


            DFT-D V3
 parameters
 s6 scaling factor         :     1.0000 
 a1 scaling factor         :     0.4298 
 s8 scaling factor         :     2.6996 
 a2 scaling factor         :     4.2359 
 ad hoc parameters k1-k3   :    16.0000     1.3333    -4.0000 

 Edisp/kcal,au: -7.645457567068  -0.012183810871 
 E6   /kcal   :  -3.152713813 
 E8   /kcal   :  -4.492743754 
 % E8         :  58.763569273 

-------------------------   ----------------
Dispersion correction           -0.012183811
-------------------------   ----------------


-------------------------   --------------------
FINAL SINGLE POINT ENERGY      -193.170795520931
-------------------------   --------------------



           ************************************************************
           *        Program running with 6 parallel MPI-processes     *
           *              working on a common directory               *
           ************************************************************
------------------------------------------------------------------------------
                         ORCA SCF GRADIENT CALCULATION
------------------------------------------------------------------------------

Gradient of the Kohn-Sham DFT energy:
Kohn-Sham wavefunction type      ... RKS
Hartree-Fock exchange scaling    ...    0.000
Number of operators              ...    1
Number of atoms                  ...   10
Basis set dimensions             ...  160
Integral neglect threshold       ... 2.5e-11
Integral primitive cutoff        ... 2.5e-12
SHARK Integral package           ... ON

Nuc. rep. gradient       (SHARK) ... done (  0.0 sec)
HCore & Overlap gradient (SHARK) ... done (  0.1 sec)
RI-J gradient            (SHARK) ... done (  0.1 sec)
Exchange-correlation gradient    ... done
Dispersion correction            ... done

------------------
CARTESIAN GRADIENT
------------------

   1   O   :   -0.000003146   -0.000011312   -0.000136603
   2   C   :   -0.000039671   -0.000120457   -0.000162974
   3   C   :    0.000070015    0.000099291    0.000490426
   4   C   :   -0.000082000   -0.000048705   -0.000095962
   5   H   :    0.000000360   -0.000016915    0.000004195
   6   H   :    0.000012342    0.000006971   -0.000011162
   7   H   :    0.000095516    0.000030964   -0.000014561
   8   H   :   -0.000021427    0.000063698   -0.000022170
   9   H   :   -0.000033606   -0.000008461   -0.000037924
  10   H   :    0.000001617    0.000004926   -0.000013264

Difference to translation invariance:
           :   -0.0000000000    0.0000000000    0.0000000000

Difference to rotation invariance:
           :   -0.0000450539    0.0000274839    0.0000621890

Norm of the cartesian gradient     ...    0.0005948103
RMS gradient                       ...    0.0001085970
MAX gradient                       ...    0.0004904258

-------
TIMINGS
-------

Total SCF gradient time            ...        1.076 sec

One electron gradient       ....       0.053 sec  (  5.0%)
RI-J Coulomb gradient       ....       0.143 sec  ( 13.3%)
XC gradient                 ....       0.597 sec  ( 55.4%)

Maximum memory used throughout the entire SCFGRAD-calculation: 28.1 MB
------------------------------------------------------------------------------
                         ORCA GEOMETRY RELAXATION STEP
------------------------------------------------------------------------------

Reading the OPT-File                    .... done
Getting information on internals        .... done
Copying old internal coords+grads       .... done
Making the new internal coordinates     .... (new redundants).... done
Validating the new internal coordinates .... (new redundants).... done
Calculating the B-matrix                .... done
Calculating the G,G- and P matrices     .... done
Transforming gradient to internals      .... done
Projecting the internal gradient        .... done
Number of atoms                         ....  10
Number of internal coordinates          ....  36
Current Energy                          ....  -193.170795521 Eh
Current gradient norm                   ....     0.000594810 Eh/bohr
Maximum allowed component of the step   ....  0.300
Current trust radius                    ....  0.300
Evaluating the initial hessian          ....  (Almloef) done
Projecting the Hessian                  .... done
Forming the augmented Hessian           .... done
Diagonalizing the augmented Hessian     .... done
Last element of RFO vector              ....  0.999906898
Lowest eigenvalues of augmented Hessian:
 -0.000002309  0.010813209  0.010815541  0.010816293  0.132250476
Length of the computed step             ....  0.013646591
The final length of the internal step   ....  0.013646591
Converting the step to cartesian space:
 Initial RMS(Int)=    0.0022744318
Transforming coordinates:
 Iter   0:  RMS(Cart)=    0.0021618776 RMS(Int)=    0.0022745823
 Iter   1:  RMS(Cart)=    0.0000047311 RMS(Int)=    0.0000028754
 Iter   2:  RMS(Cart)=    0.0000000066 RMS(Int)=    0.0000000059
done
Storing new coordinates                 .... done

                                .--------------------.
          ----------------------|Geometry convergence|-------------------------
          Item                value                   Tolerance       Converged
          ---------------------------------------------------------------------
          RMS gradient        0.0000597962            0.0001000000      YES
          MAX gradient        0.0001610658            0.0003000000      YES
          RMS step            0.0022744318            0.0020000000      NO
          MAX step            0.0056699131            0.0040000000      NO
          ........................................................
          Max(Bonds)      0.0002      Max(Angles)    0.03
          Max(Dihed)        0.32      Max(Improp)    0.00
          ---------------------------------------------------------------------

       The energies and gradients are converged
       and the convergence on bond distances, angles, dihedrals and impropers
       is acceptable.
       Convergence will therefore be signaled now


                    ***********************HURRAY********************
                    ***        THE OPTIMIZATION HAS CONVERGED     ***
                    *************************************************


    ---------------------------------------------------------------------------
                         Redundant Internal Coordinates

                          --- Optimized Parameters ---  
                            (Angstroem and degrees)

        Definition                    OldVal   dE/dq     Step     FinalVal
    ----------------------------------------------------------------------------
     1. B(C   2,O   0)                1.2210 -0.000105  0.0001    1.2211   
     2. B(C   2,C   1)                1.5248  0.000161 -0.0002    1.5246   
     3. B(C   3,C   2)                1.5248  0.000155 -0.0002    1.5246   
     4. B(H   4,C   1)                1.1002 -0.000014  0.0000    1.1002   
     5. B(H   5,C   1)                1.0936 -0.000004  0.0000    1.0936   
     6. B(H   6,C   1)                1.0989 -0.000003  0.0000    1.0989   
     7. B(H   7,C   3)                1.1000  0.000007 -0.0000    1.1000   
     8. B(H   8,C   3)                1.0991 -0.000018  0.0000    1.0991   
     9. B(H   9,C   3)                1.0936 -0.000009  0.0000    1.0936   
    10. A(H   5,C   1,H   6)          110.13 -0.000040    0.00    110.13   
    11. A(H   4,C   1,H   6)          106.73 -0.000060    0.01    106.74   
    12. A(C   2,C   1,H   4)          109.56 -0.000027    0.01    109.56   
    13. A(C   2,C   1,H   5)          110.13  0.000002   -0.00    110.13   
    14. A(C   2,C   1,H   6)          110.92  0.000140   -0.03    110.89   
    15. A(H   4,C   1,H   5)          109.31 -0.000018    0.01    109.32   
    16. A(C   1,C   2,C   3)          116.35 -0.000024    0.00    116.35   
    17. A(O   0,C   2,C   3)          121.82  0.000020   -0.00    121.82   
    18. A(O   0,C   2,C   1)          121.83  0.000005   -0.00    121.83   
    19. A(H   7,C   3,H   9)          109.41 -0.000036    0.00    109.41   
    20. A(C   2,C   3,H   9)          110.12 -0.000002   -0.00    110.12   
    21. A(H   7,C   3,H   8)          106.71 -0.000070    0.02    106.73   
    22. A(C   2,C   3,H   8)          110.77  0.000029   -0.00    110.77   
    23. A(H   8,C   3,H   9)          110.07 -0.000017    0.00    110.08   
    24. A(C   2,C   3,H   7)          109.69  0.000094   -0.02    109.68   
    25. D(C   3,C   2,C   1,H   5)   -172.84  0.000033   -0.31   -173.15   
    26. D(C   3,C   2,C   1,H   4)     66.89  0.000071   -0.32     66.57   
    27. D(O   0,C   2,C   1,H   4)   -113.17 -0.000010    0.10   -113.07   
    28. D(C   3,C   2,C   1,H   6)    -50.67  0.000077   -0.32    -51.00   
    29. D(O   0,C   2,C   1,H   6)    129.26 -0.000004    0.10    129.36   
    30. D(O   0,C   2,C   1,H   5)      7.09 -0.000048    0.12      7.21   
    31. D(H   7,C   3,C   2,O   0)   -114.33  0.000032   -0.21   -114.54   
    32. D(H   9,C   3,C   2,C   1)   -173.93 -0.000034    0.21   -173.73   
    33. D(H   9,C   3,C   2,O   0)      6.13  0.000047   -0.22      5.91   
    34. D(H   8,C   3,C   2,C   1)    -51.94 -0.000037    0.21    -51.73   
    35. D(H   8,C   3,C   2,O   0)    128.13  0.000043   -0.22    127.91   
    36. D(H   7,C   3,C   2,C   1)     65.61 -0.000048    0.21     65.82   
    ----------------------------------------------------------------------------
                 *******************************************************
                 *** FINAL ENERGY EVALUATION AT THE STATIONARY POINT ***
                 ***               (AFTER    1 CYCLES)               ***
                 *******************************************************
---------------------------------
CARTESIAN COORDINATES (ANGSTROEM)
---------------------------------
  O     -0.503084   -3.466976   -1.401061
  C      1.167213   -3.130707   -3.096994
  C     -0.159436   -2.852849   -2.398944
  C     -1.029775   -1.760349   -3.009973
  H      1.828625   -2.257820   -2.992058
  H      1.649992   -4.005915   -2.653155
  H      1.017839   -3.286978   -4.174461
  H     -1.372169   -2.073968   -4.007211
  H     -0.452983   -0.835272   -3.150015
  H     -1.896812   -1.569106   -2.371497

----------------------------
CARTESIAN COORDINATES (A.U.)
----------------------------
  NO LB      ZA    FRAG     MASS         X           Y           Z
   0 O     8.0000    0    15.999   -0.950691   -6.551636   -2.647621
   1 C     6.0000    0    12.011    2.205714   -5.916179   -5.852471
   2 C     6.0000    0    12.011   -0.301290   -5.391103   -4.533346
   3 C     6.0000    0    12.011   -1.945992   -3.326577   -5.688025
   4 H     1.0000    0     1.008    3.455600   -4.266661   -5.654170
   5 H     1.0000    0     1.008    3.118034   -7.570083   -5.013737
   6 H     1.0000    0     1.008    1.923438   -6.211489   -7.888588
   7 H     1.0000    0     1.008   -2.593024   -3.919232   -7.572531
   8 H     1.0000    0     1.008   -0.856014   -1.578436   -5.952666
   9 H     1.0000    0     1.008   -3.584456   -2.965181   -4.481479

--------------------------------
INTERNAL COORDINATES (ANGSTROEM)
--------------------------------
 O      0   0   0     0.000000000000     0.00000000     0.00000000
 C      1   0   0     2.403988389643     0.00000000     0.00000000
 C      1   2   0     1.221071905883    32.60439143     0.00000000
 C      3   1   2     1.524599550427   121.82081947   180.38101286
 H      2   1   3     1.100185538241   117.47718186    77.73014177
 H      2   1   3     1.093644504943    84.74835629   186.79712097
 H      2   1   3     1.098939538243   125.26433089   297.78844375
 H      4   3   1     1.100033701351   109.67698076   245.45776979
 H      4   3   1     1.099120883903   110.76896742   127.90955325
 H      4   3   1     1.093608703732   110.11580609     5.91311874

---------------------------
INTERNAL COORDINATES (A.U.)
---------------------------
 O      0   0   0     0.000000000000     0.00000000     0.00000000
 C      1   0   0     4.542879685551     0.00000000     0.00000000
 C      1   2   0     2.307491491944    32.60439143     0.00000000
 C      3   1   2     2.881075614207   121.82081947   180.38101286
 H      2   1   3     2.079049363776   117.47718186    77.73014177
 H      2   1   3     2.066688602209    84.74835629   186.79712097
 H      2   1   3     2.076694765017   125.26433089   297.78844375
 H      4   3   1     2.078762433636   109.67698076   245.45776979
 H      4   3   1     2.077037458650   110.76896742   127.90955325
 H      4   3   1     2.066620947725   110.11580609     5.91311874

---------------------
BASIS SET INFORMATION
---------------------
There are 3 groups of distinct atoms

 Group   1 Type O   : 11s6p2d1f contracted to 5s3p2d1f pattern {62111/411/11/1}
 Group   2 Type C   : 11s6p2d1f contracted to 5s3p2d1f pattern {62111/411/11/1}
 Group   3 Type H   : 5s1p contracted to 3s1p pattern {311/1}

Atom   0O    basis set group =>   1
Atom   1C    basis set group =>   2
Atom   2C    basis set group =>   2
Atom   3C    basis set group =>   2
Atom   4H    basis set group =>   3
Atom   5H    basis set group =>   3
Atom   6H    basis set group =>   3
Atom   7H    basis set group =>   3
Atom   8H    basis set group =>   3
Atom   9H    basis set group =>   3
---------------------------------
AUXILIARY/J BASIS SET INFORMATION
---------------------------------
There are 3 groups of distinct atoms

 Group   1 Type O   : 12s5p4d2f1g contracted to 6s4p3d1f1g pattern {711111/2111/211/2/1}
 Group   2 Type C   : 12s5p4d2f1g contracted to 6s4p3d1f1g pattern {711111/2111/211/2/1}
 Group   3 Type H   : 5s2p1d contracted to 3s1p1d pattern {311/2/1}

Atom   0O    basis set group =>   1
Atom   1C    basis set group =>   2
Atom   2C    basis set group =>   2
Atom   3C    basis set group =>   2
Atom   4H    basis set group =>   3
Atom   5H    basis set group =>   3
Atom   6H    basis set group =>   3
Atom   7H    basis set group =>   3
Atom   8H    basis set group =>   3
Atom   9H    basis set group =>   3


           ************************************************************
           *        Program running with 6 parallel MPI-processes     *
           *              working on a common directory               *
           ************************************************************
------------------------------------------------------------------------------
                           ORCA GTO INTEGRAL CALCULATION
                           -- RI-GTO INTEGRALS CHOSEN --
------------------------------------------------------------------------------
------------------------------------------------------------------------------
                   ___                                                        
                  /   \      - P O W E R E D   B Y -                         
                 /     \                                                     
                 |  |  |   _    _      __       _____    __    __             
                 |  |  |  | |  | |    /  \     |  _  \  |  |  /  |          
                  \  \/   | |  | |   /    \    | | | |  |  | /  /          
                 / \  \   | |__| |  /  /\  \   | |_| |  |  |/  /          
                |  |  |   |  __  | /  /__\  \  |    /   |      \           
                |  |  |   | |  | | |   __   |  |    \   |  |\   \          
                \     /   | |  | | |  |  |  |  | |\  \  |  | \   \       
                 \___/    |_|  |_| |__|  |__|  |_| \__\ |__|  \__/        
                                                                              
                      - O R C A' S   B I G   F R I E N D -                    
                                      &                                       
                       - I N T E G R A L  F E E D E R -                       
                                                                              
 v1 FN, 2020, v2 2021                                                         
------------------------------------------------------------------------------


Reading SHARK input file acetone.SHARKINP.tmp ... ok
----------------------
SHARK INTEGRAL PACKAGE
----------------------

Number of atoms                             ...     10
Number of basis functions                   ...    160
Number of shells                            ...     68
Maximum angular momentum                    ...      3
Integral batch strategy                     ... SHARK/LIBINT Hybrid
RI-J (if used) integral strategy            ... SPLIT-RIJ (Revised 2003 algorithm where possible)
Printlevel                                  ...      1
Contraction scheme used                     ... SEGMENTED contraction
Coulomb Range Separation                    ... NOT USED
Exchange Range Separation                   ... NOT USED
Finite Nucleus Model                        ... NOT USED
Auxiliary Coulomb fitting basis             ... AVAILABLE
   # of basis functions in Aux-J            ...    262
   # of shells in Aux-J                     ...     90
   Maximum angular momentum in Aux-J        ...      4
Auxiliary J/K fitting basis                 ... NOT available
Auxiliary Correlation fitting basis         ... NOT available
Auxiliary 'external' fitting basis          ... NOT available
Integral threshold                          ...     2.500000e-11
Primitive cut-off                           ...     2.500000e-12
Primitive pair pre-selection threshold      ...     2.500000e-12

Calculating pre-screening integrals         ... done (  0.0 sec) Dimension = 68
Organizing shell pair data                  ... done (  0.0 sec)
Shell pair information
Total number of shell pairs                 ...      2346
Shell pairs after pre-screening             ...      2298
Total number of primitive shell pairs       ...      6892
Primitive shell pairs kept                  ...      5522
          la=0 lb=0:    703 shell pairs
          la=1 lb=0:    676 shell pairs
          la=1 lb=1:    171 shell pairs
          la=2 lb=0:    302 shell pairs
          la=2 lb=1:    144 shell pairs
          la=2 lb=2:     36 shell pairs
          la=3 lb=0:    152 shell pairs
          la=3 lb=1:     72 shell pairs
          la=3 lb=2:     32 shell pairs
          la=3 lb=3:     10 shell pairs

Calculating one electron integrals          ... done (  0.0 sec)
Calculating RI/J V-Matrix + Cholesky decomp.... done (  0.0 sec)
Calculating Nuclear repulsion               ... done (  0.0 sec) ENN=    118.626558169500 Eh

SHARK setup successfully completed in   0.1 seconds

Maximum memory used throughout the entire GTOINT-calculation: 15.9 MB


           ************************************************************
           *        Program running with 6 parallel MPI-processes     *
           *              working on a common directory               *
           ************************************************************
-------------------------------------------------------------------------------
                                 ORCA SCF
-------------------------------------------------------------------------------

------------
SCF SETTINGS
------------
Hamiltonian:
 Density Functional     Method          .... DFT(GTOs)
 Exchange Functional    Exchange        .... B88
   X-Alpha parameter    XAlpha          ....  0.666667
   Becke's b parameter  XBeta           ....  0.004200
 Correlation Functional Correlation     .... LYP
 Gradients option       PostSCFGGA      .... off
   Density functional embedding theory  .... OFF
   NL short-range parameter             ....  4.000000
 RI-approximation to the Coulomb term is turned on
   Number of AuxJ basis functions       .... 262


General Settings:
 Integral files         IntName         .... acetone
 Hartree-Fock type      HFTyp           .... RHF
 Total Charge           Charge          ....    0
 Multiplicity           Mult            ....    1
 Number of Electrons    NEL             ....   32
 Basis Dimension        Dim             ....  160
 Nuclear Repulsion      ENuc            ....    118.6265581695 Eh

Convergence Acceleration:
 DIIS                   CNVDIIS         .... on
   Start iteration      DIISMaxIt       ....    12
   Startup error        DIISStart       ....  0.200000
   # of expansion vecs  DIISMaxEq       ....     5
   Bias factor          DIISBfac        ....   1.050
   Max. coefficient     DIISMaxC        ....  10.000
 Trust-Rad. Augm. Hess. CNVTRAH         .... auto
   Auto Start mean grad. ratio tolernc. ....  1.125000
   Auto Start start iteration           ....     1
   Auto Start num. interpolation iter.  ....    10
   Max. Number of Micro iterations      ....    16
   Max. Number of Macro iterations      .... Maxiter - #DIIS iter
   Number of Davidson start vectors     ....     2
   Converg. threshold I  (grad. norm)   ....   1.000e-05
   Converg. threshold II (energy diff.) ....   1.000e-08
   Grad. Scal. Fac. for Micro threshold ....   0.100
   Minimum threshold for Micro iter.    ....   0.010
   NR start threshold (gradient norm)   ....   0.001
   Initial trust radius                 ....   0.400
   Minimum AH scaling param. (alpha)    ....   1.000
   Maximum AH scaling param. (alpha)    .... 1000.000
   Orbital update algorithm             .... Taylor
   White noise on init. David. guess    .... on
   Maximum white noise                  ....   0.010
   Quad. conv. algorithm                .... NR
 SOSCF                  CNVSOSCF        .... on
   Start iteration      SOSCFMaxIt      ....   150
   Startup grad/error   SOSCFStart      ....  0.003300
 Level Shifting         CNVShift        .... on
   Level shift para.    LevelShift      ....    0.2500
   Turn off err/grad.   ShiftErr        ....    0.0010
 Zerner damping         CNVZerner       .... off
 Static damping         CNVDamp         .... on
   Fraction old density DampFac         ....    0.7000
   Max. Damping (<1)    DampMax         ....    0.9800
   Min. Damping (>=0)   DampMin         ....    0.0000
   Turn off err/grad.   DampErr         ....    0.1000
 Fernandez-Rico         CNVRico         .... off

SCF Procedure:
 Maximum # iterations   MaxIter         ....   125
 SCF integral mode      SCFMode         .... Direct
   Integral package                     .... SHARK and LIBINT hybrid scheme
 Reset frequency        DirectResetFreq ....    20
 Integral Threshold     Thresh          ....  2.500e-11 Eh
 Primitive CutOff       TCut            ....  2.500e-12 Eh

Convergence Tolerance:
 Convergence Check Mode ConvCheckMode   .... Total+1el-Energy
 Convergence forced     ConvForced      .... 0
 Energy Change          TolE            ....  1.000e-08 Eh
 1-El. energy change                    ....  1.000e-05 Eh
 Orbital Gradient       TolG            ....  1.000e-05
 Orbital Rotation angle TolX            ....  1.000e-05
 DIIS Error             TolErr          ....  5.000e-07


Diagonalization of the overlap matrix:
Smallest eigenvalue                        ... 4.343e-04
Time for diagonalization                   ...    0.003 sec
Threshold for overlap eigenvalues          ... 1.000e-08
Number of eigenvalues below threshold      ... 0
Time for construction of square roots      ...    0.003 sec
Total time needed                          ...    0.006 sec

---------------------
INITIAL GUESS: MOREAD
---------------------
Guess MOs are being read from file: acetone.gbw
Input Geometry matches current geometry (good)
Input basis set matches current basis set (good)
MOs were renormalized
MOs were reorthogonalized (Cholesky)
                      ------------------
                      INITIAL GUESS DONE (   0.0 sec)
                      ------------------
-------------------
DFT GRID GENERATION
-------------------

General Integration Accuracy     IntAcc      ... 4.388
Radial Grid Type                 RadialGrid  ... OptM3 with GC (2021)
Angular Grid (max. ang.)         AngularGrid ... 4 (Lebedev-302)
Angular grid pruning method      GridPruning ... 4 (adaptive)
Weight generation scheme         WeightScheme... Becke
Basis function cutoff            BFCut       ... 1.0000e-11
Integration weight cutoff        WCut        ... 1.0000e-14
Angular grids for H and He will be reduced by one unit
Partially contracted basis set               ... off
Rotationally invariant grid construction     ... off

Total number of grid points                  ...    43791
Total number of batches                      ...      688
Average number of points per batch           ...       63
Average number of grid points per atom       ...     4379
Time for grid setup =    0.167 sec

--------------
SCF ITERATIONS
--------------
ITER       Energy         Delta-E        Max-DP      RMS-DP      [F,P]     Damp
               ***  Starting incremental Fock matrix formation  ***
                      *** Initiating the SOSCF procedure ***
                      *** Re-Reading the Fockian *** 
                      *** Removing any level shift *** 
ITER      Energy       Delta-E        Grad      Rot      Max-DP    RMS-DP
  0   -193.15860338 -193.1586033795  0.000455  0.000455  0.000573  0.000021
               *** Restarting incremental Fock matrix formation ***
  1   -193.15860981  -0.0000064291  0.000121  0.000338  0.000197  0.000010
  2   -193.15861022  -0.0000004073  0.000101  0.000309  0.000568  0.000010
  3   -193.15861000   0.0000002134  0.000226  0.000219  0.000435  0.000008
  4   -193.15861027  -0.0000002651  0.000008  0.000020  0.000050  0.000001
  5   -193.15861027   0.0000000009  0.000008  0.000010  0.000030  0.000001
                  ***Gradient check signals convergence***
              ***Rediagonalizing the Fockian in SOSCF/NRSCF***

               *****************************************************
               *                     SUCCESS                       *
               *           SCF CONVERGED AFTER   6 CYCLES          *
               *****************************************************


----------------
TOTAL SCF ENERGY
----------------

Total Energy       :         -193.15861027 Eh           -5256.11300 eV

Components:
Nuclear Repulsion  :          118.62655817 Eh            3227.99276 eV
Electronic Energy  :         -311.78516844 Eh           -8484.10576 eV
One Electron Energy:         -495.92448545 Eh          -13494.79131 eV
Two Electron Energy:          184.13931701 Eh            5010.68555 eV

Virial components:
Potential Energy   :         -385.58132665 Eh          -10492.20131 eV
Kinetic Energy     :          192.42271638 Eh            5236.08831 eV
Virial Ratio       :            2.00382436


DFT components:
N(Alpha)           :       15.999991655583 electrons
N(Beta)            :       15.999991655583 electrons
N(Total)           :       31.999983311167 electrons
E(X)               :      -25.957423935997 Eh       
E(C)               :       -1.058221797376 Eh       
E(XC)              :      -27.015645733372 Eh       
DFET-embed. en.    :        0.000000000000 Eh       

---------------
SCF CONVERGENCE
---------------

  Last Energy change         ...   -2.9322e-09  Tolerance :   1.0000e-08
  Last MAX-Density change    ...    1.2771e-05  Tolerance :   1.0000e-07
  Last RMS-Density change    ...    2.1421e-07  Tolerance :   5.0000e-09
  Last Orbital Gradient      ...    1.0624e-06  Tolerance :   1.0000e-05
  Last Orbital Rotation      ...    1.7990e-06  Tolerance :   1.0000e-05

[...]
  87   0.0000       2.104192        57.2580 
  88   0.0000       2.115522        57.5663 
  89   0.0000       2.241916        61.0056 
  90   0.0000       2.255502        61.3753 
  91   0.0000       2.259103        61.4733 
  92   0.0000       2.304520        62.7092 
  93   0.0000       2.362922        64.2984 
  94   0.0000       2.368841        64.4594 
  95   0.0000       2.431504        66.1646 
  96   0.0000       2.442837        66.4730 
  97   0.0000       2.473235        67.3001 
  98   0.0000       2.474895        67.3453 
  99   0.0000       2.556966        69.5786 
 100   0.0000       2.608508        70.9811 
 101   0.0000       2.658701        72.3469 
 102   0.0000       2.689598        73.1877 
 103   0.0000       2.712718        73.8168 
 104   0.0000       2.755315        74.9759 
 105   0.0000       2.818403        76.6926 
 106   0.0000       2.883958        78.4765 
 107   0.0000       2.890846        78.6639 
 108   0.0000       2.912459        79.2520 
 109   0.0000       2.982315        81.1529 
 110   0.0000       2.983092        81.1741 
 111   0.0000       2.998100        81.5825 
 112   0.0000       3.016156        82.0738 
 113   0.0000       3.035201        82.5920 
 114   0.0000       3.043923        82.8294 
 115   0.0000       3.137215        85.3680 
 116   0.0000       3.194482        86.9263 
 117   0.0000       3.216358        87.5215 
 118   0.0000       3.233202        87.9799 
 119   0.0000       3.277993        89.1987 
 120   0.0000       3.286590        89.4327 
 121   0.0000       3.323658        90.4413 
 122   0.0000       3.332670        90.6866 
 123   0.0000       3.386869        92.1614 
 124   0.0000       3.422052        93.1188 
 125   0.0000       3.444050        93.7174 
 126   0.0000       3.558638        96.8355 
 127   0.0000       3.659461        99.5790 
 128   0.0000       3.758031       102.2612 
 129   0.0000       3.758707       102.2796 
 130   0.0000       3.796912       103.3192 
 131   0.0000       3.871409       105.3464 
 132   0.0000       3.879230       105.5592 
 133   0.0000       3.888609       105.8144 
 134   0.0000       3.948529       107.4449 
 135   0.0000       4.191623       114.0599 
 136   0.0000       4.221319       114.8679 
 137   0.0000       4.254354       115.7669 
 138   0.0000       4.280298       116.4728 
 139   0.0000       4.303005       117.0907 
 140   0.0000       4.402274       119.7920 
 141   0.0000       4.534546       123.3913 
 142   0.0000       4.654217       126.6477 
 143   0.0000       4.684800       127.4799 
 144   0.0000       5.086583       138.4130 
 145   0.0000       5.091341       138.5424 
 146   0.0000       5.470862       148.8697 
 147   0.0000       5.552114       151.0807 
 148   0.0000       5.995022       163.1329 
 149   0.0000       6.172022       167.9492 
 150   0.0000       6.247927       170.0147 
 151   0.0000       6.359398       173.0480 
 152   0.0000       6.367168       173.2594 
 153   0.0000       6.683134       181.8573 
 154   0.0000       6.856229       186.5675 
 155   0.0000       6.919810       188.2976 
 156   0.0000      21.972612       597.9052 
 157   0.0000      21.974723       597.9626 
 158   0.0000      22.604971       615.1125 
 159   0.0000      43.367525      1180.0904 

                    ********************************
                    * MULLIKEN POPULATION ANALYSIS *
                    ********************************

-----------------------
MULLIKEN ATOMIC CHARGES
-----------------------
   0 O :   -0.254205
   1 C :   -0.294987
   2 C :    0.184097
   3 C :   -0.294929
   4 H :    0.110381
   5 H :    0.115516
   6 H :    0.104230
   7 H :    0.110064
   8 H :    0.104501
   9 H :    0.115333
Sum of atomic charges:   -0.0000000

--------------------------------
MULLIKEN REDUCED ORBITAL CHARGES
--------------------------------
  0 O s       :     3.804704  s :     3.804704
      pz      :     1.319692  p :     4.419502
      px      :     1.651649
      py      :     1.448161
      dz2     :     0.009408  d :     0.028362
      dxz     :     0.006040
      dyz     :     0.006799
      dx2y2   :     0.002888
      dxy     :     0.003227
      f0      :     0.000444  f :     0.001637
      f+1     :     0.000219
      f-1     :     0.000267
      f+2     :     0.000267
      f-2     :     0.000256
      f+3     :     0.000100
      f-3     :     0.000084
  1 C s       :     3.253063  s :     3.253063
      pz      :     1.008225  p :     3.008267
      px      :     0.956898
      py      :     1.043145
      dz2     :     0.009658  d :     0.030530
      dxz     :     0.005397
      dyz     :     0.001490
      dx2y2   :     0.004423
      dxy     :     0.009562
      f0      :     0.000756  f :     0.003127
      f+1     :     0.000668
      f-1     :     0.000075
      f+2     :     0.000165
      f-2     :     0.000372
      f+3     :     0.000771
      f-3     :     0.000320
  2 C s       :     3.200202  s :     3.200202
      pz      :     0.756676  p :     2.407838
      px      :     0.862136
      py      :     0.789026
      dz2     :     0.044313  d :     0.190998
      dxz     :     0.049734
      dyz     :     0.031213
      dx2y2   :     0.034325
      dxy     :     0.031412
      f0      :     0.002618  f :     0.016865
      f+1     :     0.003108
      f-1     :     0.002656
      f+2     :     0.002922
      f-2     :     0.002626
      f+3     :     0.000994
      f-3     :     0.001943
  3 C s       :     3.253039  s :     3.253039
      pz      :     1.027103  p :     3.008237
      px      :     1.009359
      py      :     0.971775
      dz2     :     0.006861  d :     0.030525
      dxz     :     0.004075
      dyz     :     0.005419
      dx2y2   :     0.007295
      dxy     :     0.006875
      f0      :     0.000266  f :     0.003128
      f+1     :     0.000480
      f-1     :     0.000506
      f+2     :     0.000337
      f-2     :     0.000631
      f+3     :     0.000622
      f-3     :     0.000287
  4 H s       :     0.868181  s :     0.868181
      pz      :     0.004715  p :     0.021439
      px      :     0.007894
      py      :     0.008830
  5 H s       :     0.863060  s :     0.863060
      pz      :     0.005540  p :     0.021424
      px      :     0.006199
      py      :     0.009685
  6 H s       :     0.874507  s :     0.874507
      pz      :     0.011947  p :     0.021263
      px      :     0.004653
      py      :     0.004663
  7 H s       :     0.868513  s :     0.868513
      pz      :     0.010824  p :     0.021423
      px      :     0.005507
      py      :     0.005091
  8 H s       :     0.874235  s :     0.874235
      pz      :     0.004736  p :     0.021265
      px      :     0.006096
      py      :     0.010433
  9 H s       :     0.863241  s :     0.863241
      pz      :     0.006930  p :     0.021426
      px      :     0.009916
      py      :     0.004580


                     *******************************
                     * LOEWDIN POPULATION ANALYSIS *
                     *******************************

----------------------
LOEWDIN ATOMIC CHARGES
----------------------
   0 O :    0.128260
   1 C :   -0.269103
   2 C :   -0.372646
   3 C :   -0.269071
   4 H :    0.133862
   5 H :    0.127884
   6 H :    0.129559
   7 H :    0.133430
   8 H :    0.130005
   9 H :    0.127820

-------------------------------
LOEWDIN REDUCED ORBITAL CHARGES
-------------------------------
  0 O s       :     3.410799  s :     3.410799
      pz      :     1.409575  p :     4.388123
      px      :     1.555379
      py      :     1.423169
      dz2     :     0.015906  d :     0.066934
      dxz     :     0.017017
      dyz     :     0.020682
      dx2y2   :     0.007354
      dxy     :     0.005975
      f0      :     0.000789  f :     0.005885
      f+1     :     0.000985
      f-1     :     0.001523
      f+2     :     0.001158
      f-2     :     0.001020
      f+3     :     0.000178
      f-3     :     0.000233
  1 C s       :     2.847787  s :     2.847787
      pz      :     1.063163  p :     3.178979
      px      :     1.045001
      py      :     1.070814
      dz2     :     0.063466  d :     0.218863
      dxz     :     0.038652
      dyz     :     0.016102
      dx2y2   :     0.031704
      dxy     :     0.068939
      f0      :     0.003352  f :     0.023474
      f+1     :     0.003996
      f-1     :     0.001440
      f+2     :     0.004556
      f-2     :     0.003598
      f+3     :     0.004224
      f-3     :     0.002308
  2 C s       :     2.791685  s :     2.791685
      pz      :     0.899411  p :     2.724125
      px      :     0.957572
      py      :     0.867142
      dz2     :     0.150350  d :     0.752477
      dxz     :     0.200358
      dyz     :     0.151507
      dx2y2   :     0.135250
      dxy     :     0.115013
      f0      :     0.014487  f :     0.104358
      f+1     :     0.020604
      f-1     :     0.017345
      f+2     :     0.018311
      f-2     :     0.013634
      f+3     :     0.006828
      f-3     :     0.013150
  3 C s       :     2.847804  s :     2.847804
      pz      :     1.068897  p :     3.178933
      px      :     1.058525
      py      :     1.051511
      dz2     :     0.044294  d :     0.218855
      dxz     :     0.044382
      dyz     :     0.031859
      dx2y2   :     0.039791
      dxy     :     0.058529
      f0      :     0.002504  f :     0.023478
      f+1     :     0.002444
      f-1     :     0.004708
      f+2     :     0.003800
      f-2     :     0.003008
      f+3     :     0.004304
      f-3     :     0.002710
  4 H s       :     0.805982  s :     0.805982
      pz      :     0.013507  p :     0.060157
      px      :     0.020393
      py      :     0.026256
  5 H s       :     0.811682  s :     0.811682
      pz      :     0.016335  p :     0.060433
      px      :     0.016416
      py      :     0.027682
  6 H s       :     0.810259  s :     0.810259
      pz      :     0.033444  p :     0.060182
      px      :     0.013184
      py      :     0.013554
  7 H s       :     0.806403  s :     0.806403
      pz      :     0.030361  p :     0.060167
      px      :     0.014960
      py      :     0.014846
  8 H s       :     0.809828  s :     0.809828
      pz      :     0.013709  p :     0.060168
      px      :     0.018641
      py      :     0.027817
  9 H s       :     0.811747  s :     0.811747
      pz      :     0.020643  p :     0.060434
      px      :     0.027185
      py      :     0.012605


                      *****************************
                      * MAYER POPULATION ANALYSIS *
                      *****************************

  NA   - Mulliken gross atomic population
  ZA   - Total nuclear charge
  QA   - Mulliken gross atomic charge
  VA   - Mayer's total valence
  BVA  - Mayer's bonded valence
  FA   - Mayer's free valence

  ATOM       NA         ZA         QA         VA         BVA        FA
  0 O      8.2542     8.0000    -0.2542     2.1983     2.1983     0.0000
  1 C      6.2950     6.0000    -0.2950     3.6799     3.6799    -0.0000
  2 C      5.8159     6.0000     0.1841     4.0621     4.0621    -0.0000
  3 C      6.2949     6.0000    -0.2949     3.6796     3.6796    -0.0000
  4 H      0.8896     1.0000     0.1104     0.9737     0.9737    -0.0000
  5 H      0.8845     1.0000     0.1155     1.0037     1.0037     0.0000
  6 H      0.8958     1.0000     0.1042     0.9724     0.9724     0.0000
  7 H      0.8899     1.0000     0.1101     0.9736     0.9736    -0.0000
  8 H      0.8955     1.0000     0.1045     0.9724     0.9724    -0.0000
  9 H      0.8847     1.0000     0.1153     1.0039     1.0039    -0.0000

  Mayer bond orders larger than 0.100000
B(  0-O ,  2-C ) :   2.1748 B(  1-C ,  2-C ) :   0.9337 B(  1-C ,  4-H ) :   0.9403 
B(  1-C ,  5-H ) :   0.9727 B(  1-C ,  6-H ) :   0.9440 B(  2-C ,  3-C ) :   0.9338 
B(  3-C ,  7-H ) :   0.9407 B(  3-C ,  8-H ) :   0.9435 B(  3-C ,  9-H ) :   0.9728 


-------
TIMINGS
-------

Total SCF time: 0 days 0 hours 0 min 1 sec 

Total time                  ....       1.074 sec
Sum of individual times     ....       0.963 sec  ( 89.7%)

Fock matrix formation       ....       0.714 sec  ( 66.5%)
  Split-RI-J                ....       0.206 sec  ( 28.8% of F)
  XC integration            ....       0.487 sec  ( 68.2% of F)
    Basis function eval.    ....       0.098 sec  ( 20.2% of XC)
    Density eval.           ....       0.129 sec  ( 26.5% of XC)
    XC-Functional eval.     ....       0.014 sec  (  2.8% of XC)
    XC-Potential eval.      ....       0.099 sec  ( 20.4% of XC)
Diagonalization             ....       0.014 sec  (  1.3%)
Density matrix formation    ....       0.002 sec  (  0.2%)
Population analysis         ....       0.014 sec  (  1.3%)
Initial guess               ....       0.007 sec  (  0.6%)
Orbital Transformation      ....       0.000 sec  (  0.0%)
Orbital Orthonormalization  ....       0.004 sec  (  0.3%)
DIIS solution               ....       0.005 sec  (  0.5%)
SOSCF solution              ....       0.041 sec  (  3.8%)
Grid generation             ....       0.167 sec  ( 15.5%)

Maximum memory used throughout the entire SCF-calculation: 15.9 MB


-------------------------------------------------------------------------------
                          DFT DISPERSION CORRECTION                            
                                                                               
                              DFTD3 V3.1  Rev 1                                
                          USING Becke-Johnson damping                          
-------------------------------------------------------------------------------
The BLYP functional is recognized
Active option DFTDOPT                   ...         4   

molecular C6(AA) [au] = 764.473565 


            DFT-D V3
 parameters
 s6 scaling factor         :     1.0000 
 a1 scaling factor         :     0.4298 
 s8 scaling factor         :     2.6996 
 a2 scaling factor         :     4.2359 
 ad hoc parameters k1-k3   :    16.0000     1.3333    -4.0000 

 Edisp/kcal,au: -7.646178687581  -0.012184960049 
 E6   /kcal   :  -3.153017710 
 E8   /kcal   :  -4.493160978 
 % E8         :  58.763483841 

-------------------------   ----------------
Dispersion correction           -0.012184960
-------------------------   ----------------


-------------------------   --------------------
FINAL SINGLE POINT ENERGY      -193.170795229646
-------------------------   --------------------

                                *** OPTIMIZATION RUN DONE ***

                            ***************************************
                            *     ORCA property calculations      *
                            ***************************************

                                    ---------------------
                                    Active property flags
                                    ---------------------
   (+) Dipole Moment


------------------------------------------------------------------------------
                       ORCA ELECTRIC PROPERTIES CALCULATION
------------------------------------------------------------------------------

Dipole Moment Calculation                       ... on
Quadrupole Moment Calculation                   ... off
Polarizability Calculation                      ... off
GBWName                                         ... acetone.gbw
Electron density                                ... acetone.scfp
The origin for moment calculation is the CENTER OF MASS  = (-0.245077, -5.291151 -4.687980)

-------------
DIPOLE MOMENT
-------------
                                X             Y             Z
Electronic contribution:     -1.12769      -2.01256       3.23991
Nuclear contribution   :      1.45112       2.58952      -4.17183
                        -----------------------------------------
Total Dipole Moment    :      0.32343       0.57696      -0.93192
                        -----------------------------------------
Magnitude (a.u.)       :      1.14279
Magnitude (Debye)      :      2.90473



--------------------
Rotational spectrum 
--------------------
 
Rotational constants in cm-1:     0.333645     0.280811     0.161654 
Rotational constants in MHz : 10002.412869  8418.511486  4846.269051 

 Dipole components along the rotational axes: 
x,y,z [a.u.] :     0.000640     1.142786     0.000862 
x,y,z [Debye]:     0.001627     2.904732     0.002190 

 

----------------------------------------------------------------------------
                           ORCA NUMERICAL FREQUENCIES
                              (6-process run)
----------------------------------------------------------------------------

Number of atoms                ... 10
Central differences            ... used
Number of displacements        ... 60
Numerical increment            ... 5.000e-03 bohr
IR-spectrum generation         ... on
Raman-spectrum generation      ... off
Surface Crossing Hessian       ... off

The output will be reduced. Please look at the following files:
SCF program output             ... >acetone.lastscf
Integral program output        ... >acetone.lastint
Gradient program output        ... >acetone.lastgrad
Dipole moment program output   ... >acetone.lastmom
AutoCI program output          ... >acetone.lastautoci

	<< Calculating on displaced geometry   6 (of  60) >>
	<< Calculating on displaced geometry   1 (of  60) >>
	<< Calculating on displaced geometry   5 (of  60) >>
	<< Calculating on displaced geometry   4 (of  60) >>
	<< Calculating on displaced geometry   2 (of  60) >>
	<< Calculating on displaced geometry   3 (of  60) >>

ORCA finished by error termination in SCF gradient
Calling Command: /opt/orca503/orca_scfgrad acetone_D00000.scfgrad.inp >acetone_D00000.lastgrad
Check for SCF gradient-logfiles
ORCA_NUMCALC: ORCA finished with an error in the gradient calculation
              Please check acetone.lastgrad.dpl0 for details
[file orca_numfreq/numfreq_utils.cpp, line 2106]: Skipping calculation . . .




ORCA finished by error termination in SCF gradient
ORCA finished by error termination in SCF gradient
Calling Command: /opt/orca503/orca_scfgrad acetone_D00002.scfgrad.inp >acetone_D00002.lastgrad
ORCA finished by error termination in SCF gradient
Calling Command: /opt/orca503/orca_scfgrad acetone_D00001.scfgrad.inp >acetone_D00001.lastgrad
Check for SCF gradient-logfiles
Check for SCF gradient-logfiles
Calling Command: /opt/orca503/orca_scfgrad acetone_D00005.scfgrad.inp >acetone_D00005.lastgrad
ORCA_NUMCALC: ORCA finished with an error in the gradient calculation
ORCA_NUMCALC: ORCA finished with an error in the gradient calculation
Check for SCF gradient-logfiles
ORCA_NUMCALC: ORCA finished with an error in the gradient calculation
              Please check acetone.lastgrad.dpl2 for details
              Please check acetone.lastgrad.dpl1 for details
              Please check acetone.lastgrad.dpl5 for details
[file orca_numfreq/numfreq_utils.cpp, line 2106]: Skipping calculation . . .

[file orca_numfreq/numfreq_utils.cpp, line 2106]: Skipping calculation . . .

[file orca_numfreq/numfreq_utils.cpp, line 2106]: Skipping calculation . . .


ORCA finished by error termination in SCF gradient
Calling Command: /opt/orca503/orca_scfgrad acetone_D00004.scfgrad.inp >acetone_D00004.lastgrad
Check for SCF gradient-logfiles
ORCA_NUMCALC: ORCA finished with an error in the gradient calculation

              Please check acetone.lastgrad.dpl4 for details
ORCA finished by error termination in SCF gradient
Calling Command: /opt/orca503/orca_scfgrad acetone_D00003.scfgrad.inp >acetone_D00003.lastgrad
Check for SCF gradient-logfiles
ORCA_NUMCALC: ORCA finished with an error in the gradient calculation
[file orca_numfreq/numfreq_utils.cpp, line 2106]: Skipping calculation . . .

              Please check acetone.lastgrad.dpl3 for details
[file orca_numfreq/numfreq_utils.cpp, line 2106]: Skipping calculation . . .

