
                                 *****************
                                 * O   R   C   A *
                                 *****************

                                            #,                                       
                                            ###                                      
                                            ####                                     
                                            #####                                    
                                            ######                                   
                                           ########,                                 
                                     ,,################,,,,,                         
                               ,,#################################,,                 
                          ,,##########################################,,             
                       ,#########################################, ''#####,          
                    ,#############################################,,   '####,        
                  ,##################################################,,,,####,       
                ,###########''''           ''''###############################       
              ,#####''   ,,,,##########,,,,          '''####'''          '####       
            ,##' ,,,,###########################,,,                        '##       
           ' ,,###''''                  '''############,,,                           
         ,,##''                                '''############,,,,        ,,,,,,###''
      ,#''                                            '''#######################'''  
     '                                                          ''''####''''         
             ,#######,   #######,   ,#######,      ##                                
            ,#'     '#,  ##    ##  ,#'     '#,    #''#        ######   ,####,        
            ##       ##  ##   ,#'  ##            #'  '#       #        #'  '#        
            ##       ##  #######   ##           ,######,      #####,   #    #        
            '#,     ,#'  ##    ##  '#,     ,#' ,#      #,         ##   #,  ,#        
             '#######'   ##     ##  '#######'  #'      '#     #####' # '####'        



                  #######################################################
                  #                        -***-                        #
                  #          Department of theory and spectroscopy      #
                  #    Directorship and core code : Frank Neese         #
                  #        Max Planck Institute fuer Kohlenforschung    #
                  #                Kaiser Wilhelm Platz 1               #
                  #                 D-45470 Muelheim/Ruhr               #
                  #                      Germany                        #
                  #                                                     #
                  #                  All rights reserved                #
                  #                        -***-                        #
                  #######################################################


                         Program Version 5.0.3 -  RELEASE  -


 With contributions from (in alphabetic order):
   Daniel Aravena         : Magnetic Suceptibility
   Michael Atanasov       : Ab Initio Ligand Field Theory (pilot matlab implementation)
   Alexander A. Auer      : GIAO ZORA, VPT2 properties, NMR spectrum
   Ute Becker             : Parallelization
   Giovanni Bistoni       : ED, misc. LED, open-shell LED, HFLD
   Martin Brehm           : Molecular dynamics
   Dmytro Bykov           : SCF Hessian
   Vijay G. Chilkuri      : MRCI spin determinant printing, contributions to CSF-ICE
   Dipayan Datta          : RHF DLPNO-CCSD density
   Achintya Kumar Dutta   : EOM-CC, STEOM-CC
   Dmitry Ganyushin       : Spin-Orbit,Spin-Spin,Magnetic field MRCI
   Miquel Garcia          : C-PCM and meta-GGA Hessian, CC/C-PCM, Gaussian charge scheme
   Yang Guo               : DLPNO-NEVPT2, F12-NEVPT2, CIM, IAO-localization
   Andreas Hansen         : Spin unrestricted coupled pair/coupled cluster methods
   Benjamin Helmich-Paris : MC-RPA, TRAH-SCF, COSX integrals
   Lee Huntington         : MR-EOM, pCC
   Robert Izsak           : Overlap fitted RIJCOSX, COSX-SCS-MP3, EOM
   Marcus Kettner         : VPT2
   Christian Kollmar      : KDIIS, OOCD, Brueckner-CCSD(T), CCSD density, CASPT2, CASPT2-K
   Simone Kossmann        : Meta GGA functionals, TD-DFT gradient, OOMP2, MP2 Hessian
   Martin Krupicka        : Initial AUTO-CI
   Lucas Lang             : DCDCAS
   Marvin Lechner         : AUTO-CI (C++ implementation), FIC-MRCC
   Dagmar Lenk            : GEPOL surface, SMD
   Dimitrios Liakos       : Extrapolation schemes; Compound Job, initial MDCI parallelization
   Dimitrios Manganas     : Further ROCIS development; embedding schemes
   Dimitrios Pantazis     : SARC Basis sets
   Anastasios Papadopoulos: AUTO-CI, single reference methods and gradients
   Taras Petrenko         : DFT Hessian,TD-DFT gradient, ASA, ECA, R-Raman, ABS, FL, XAS/XES, NRVS
   Peter Pinski           : DLPNO-MP2, DLPNO-MP2 Gradient
   Christoph Reimann      : Effective Core Potentials
   Marius Retegan         : Local ZFS, SOC
   Christoph Riplinger    : Optimizer, TS searches, QM/MM, DLPNO-CCSD(T), (RO)-DLPNO pert. Triples
   Tobias Risthaus        : Range-separated hybrids, TD-DFT gradient, RPA, STAB
   Michael Roemelt        : Original ROCIS implementation
   Masaaki Saitow         : Open-shell DLPNO-CCSD energy and density
   Barbara Sandhoefer     : DKH picture change effects
   Avijit Sen             : IP-ROCIS
   Kantharuban Sivalingam : CASSCF convergence, NEVPT2, FIC-MRCI
   Bernardo de Souza      : ESD, SOC TD-DFT
   Georgi Stoychev        : AutoAux, RI-MP2 NMR, DLPNO-MP2 response
   Willem Van den Heuvel  : Paramagnetic NMR
   Boris Wezisla          : Elementary symmetry handling
   Frank Wennmohs         : Technical directorship


 We gratefully acknowledge several colleagues who have allowed us to
 interface, adapt or use parts of their codes:
   Stefan Grimme, W. Hujo, H. Kruse, P. Pracht,  : VdW corrections, initial TS optimization,
                  C. Bannwarth, S. Ehlert          DFT functionals, gCP, sTDA/sTD-DF
   Ed Valeev, F. Pavosevic, A. Kumar             : LibInt (2-el integral package), F12 methods
   Garnet Chan, S. Sharma, J. Yang, R. Olivares  : DMRG
   Ulf Ekstrom                                   : XCFun DFT Library
   Mihaly Kallay                                 : mrcc  (arbitrary order and MRCC methods)
   Jiri Pittner, Ondrej Demel                    : Mk-CCSD
   Frank Weinhold                                : gennbo (NPA and NBO analysis)
   Christopher J. Cramer and Donald G. Truhlar   : smd solvation model
   Lars Goerigk                                  : TD-DFT with DH, B97 family of functionals
   V. Asgeirsson, H. Jonsson                     : NEB implementation
   FAccTs GmbH                                   : IRC, NEB, NEB-TS, DLPNO-Multilevel, CI-OPT
                                                   MM, QMMM, 2- and 3-layer-ONIOM, Crystal-QMMM,
                                                   LR-CPCM, SF, NACMEs, symmetry and pop. for TD-DFT,
                                                   nearIR, NL-DFT gradient (VV10), updates on ESD,
                                                   ML-optimized integration grids
   S Lehtola, MJT Oliveira, MAL Marques          : LibXC Library
   Liviu Ungur et al                             : ANISO software


 Your calculation uses the libint2 library for the computation of 2-el integrals
 For citations please refer to: http://libint.valeyev.net

 Your ORCA version has been built with support for libXC version: 5.1.0
 For citations please refer to: https://tddft.org/programs/libxc/

 This ORCA versions uses:
   CBLAS   interface :  Fast vector & matrix operations
   LAPACKE interface :  Fast linear algebra routines
   SCALAPACK package :  Parallel linear algebra routines
   Shared memory     :  Shared parallel matrices
   BLAS/LAPACK       :  OpenBLAS 0.3.15  USE64BITINT DYNAMIC_ARCH NO_AFFINITY Haswell SINGLE_THREADED
        Core in use  :  Haswell
   Copyright (c) 2011-2014, The OpenBLAS Project




***************************************
The coordinates will be read from file: hydro2.xyz
***************************************


Your calculation utilizes the atom-pairwise dispersion correction
with the Becke-Johnson damping scheme (D3BJ)
Cite in your paper:
S.Grimme, S.Ehrlich, L.Goerigk, J Comput Chem, (2011), 32, 1456–1465 
S.Grimme, J.Antony, S.Ehrlich and H.Krieg, J.Chem.Phys., 132, (2010), 154104 
   

================================================================================

----- Orbital basis set information -----
Your calculation utilizes the basis: def2-TZVP
   F. Weigend and R. Ahlrichs, Phys. Chem. Chem. Phys. 7, 3297 (2005).

----- AuxJ basis set information -----
Your calculation utilizes the auxiliary basis: def2/J
   F. Weigend, Phys. Chem. Chem. Phys. 8, 1057 (2006).

================================================================================
                                        WARNINGS
                       Please study these warnings very carefully!
================================================================================


WARNING: The environment variable RSH_COMMAND is not set!
  ===> : All Displacements for the Numerical Hessian or Gradient calculation
         will be started on localhost

WARNING: Geometry Optimization
  ===> : Switching off AutoStart
         For restart on a previous wavefunction, please use MOREAD

INFO   : the flag for use of the SHARK integral package has been found!

================================================================================
                                       INPUT FILE
================================================================================
NAME = hydro2.inp
|  1> !BLYP D3BJ def2-TZVP Opt NumFreq xyzfile
|  2> 
|  3> %Freq
|  4> Temp 298.15
|  5> end
|  6> 
|  7> %pal
|  8> nprocs 6
|  9> end
| 10> 
| 11> *xyzfile 0 1 hydro2.xyz
| 12> 
| 13>                          ****END OF INPUT****
================================================================================

                       *****************************
                       * Geometry Optimization Run *
                       *****************************

Geometry optimization settings:
Update method            Update   .... BFGS
Choice of coordinates    CoordSys .... Z-matrix Internals
Initial Hessian          InHess   .... Almoef's Model

Convergence Tolerances:
Energy Change            TolE     ....  5.0000e-06 Eh
Max. Gradient            TolMAXG  ....  3.0000e-04 Eh/bohr
RMS Gradient             TolRMSG  ....  1.0000e-04 Eh/bohr
Max. Displacement        TolMAXD  ....  4.0000e-03 bohr
RMS Displacement         TolRMSD  ....  2.0000e-03 bohr
Strict Convergence                ....  False
------------------------------------------------------------------------------
                        ORCA OPTIMIZATION COORDINATE SETUP
------------------------------------------------------------------------------

The optimization will be done in new redundant internal coordinates
Making redundant internal coordinates   ...  (new redundants) done
Evaluating the initial hessian          ...  (Almloef) done
Evaluating the coordinates              ...  done
Calculating the B-matrix                .... done
Calculating the G-matrix                .... done
Diagonalizing the G-matrix              .... done
The first mode is                       ....   24
The number of degrees of freedom        ....   30

    -----------------------------------------------------------------
                    Redundant Internal Coordinates


    -----------------------------------------------------------------
         Definition                    Initial Value    Approx d2E/dq
    -----------------------------------------------------------------
      1. B(C   2,N   1)                  1.3867         0.566374   
      2. B(C   2,O   0)                  1.2283         1.013395   
      3. B(C   3,C   2)                  1.4933         0.427533   
      4. B(C   4,N   1)                  1.3731         0.595428   
      5. B(C   5,C   3)                  1.3400         0.750877   
      6. B(C   6,C   5)                  1.4419         0.516398   
      7. B(C   6,C   4)                  1.3377         0.757122   
      8. B(H   7,N   1)                  1.0157         0.423752   
      9. B(H   8,C   3)                  1.0832         0.369144   
     10. B(H   9,C   4)                  1.0825         0.370181   
     11. B(H  10,C   5)                  1.0842         0.367841   
     12. B(H  11,C   6)                  1.0833         0.369017   
     13. A(C   2,N   1,H   7)          118.9300         0.351955   
     14. A(C   4,N   1,H   7)          117.5931         0.354950   
     15. A(C   2,N   1,C   4)          123.4769         0.418502   
     16. A(N   1,C   2,C   3)          115.5032         0.397238   
     17. A(O   0,C   2,C   3)          120.3441         0.440622   
     18. A(O   0,C   2,N   1)          124.1527         0.460647   
     19. A(C   5,C   3,H   8)          122.0376         0.366152   
     20. A(C   2,C   3,H   8)          118.4394         0.332981   
     21. A(C   2,C   3,C   5)          119.5229         0.420278   
     22. A(C   6,C   4,H   9)          122.9365         0.366849   
     23. A(N   1,C   4,H   9)          116.2485         0.349978   
     24. A(N   1,C   4,C   6)          120.8150         0.443796   
     25. A(C   3,C   5,H  10)          120.7815         0.365931   
     26. A(C   3,C   5,C   6)          121.1905         0.434745   
     27. A(C   6,C   5,H  10)          118.0280         0.343432   
     28. A(C   5,C   6,H  11)          118.9307         0.343616   
     29. A(C   4,C   6,H  11)          121.5779         0.366651   
     30. A(C   4,C   6,C   5)          119.4914         0.435393   
     31. D(C   3,C   2,N   1,C   4)      0.0234         0.025652   
     32. D(C   3,C   2,N   1,H   7)   -179.9902         0.025652   
     33. D(O   0,C   2,N   1,H   7)     -0.0257         0.025652   
     34. D(O   0,C   2,N   1,C   4)    179.9879         0.025652   
     35. D(H   8,C   3,C   2,O   0)      0.0145         0.012493   
     36. D(C   5,C   3,C   2,O   0)   -179.9690         0.012493   
     37. D(C   5,C   3,C   2,N   1)     -0.0030         0.012493   
     38. D(H   8,C   3,C   2,N   1)    179.9805         0.012493   
     39. D(H   9,C   4,N   1,H   7)     -0.0021         0.028537   
     40. D(H   9,C   4,N   1,C   2)    179.9844         0.028537   
     41. D(C   6,C   4,N   1,H   7)    179.9983         0.028537   
     42. D(C   6,C   4,N   1,C   2)     -0.0151         0.028537   
     43. D(H  10,C   5,C   3,C   2)    179.9925         0.040218   
     44. D(C   6,C   5,C   3,H   8)    179.9926         0.040218   
     45. D(C   6,C   5,C   3,C   2)     -0.0246         0.040218   
     46. D(H  10,C   5,C   3,H   8)      0.0096         0.040218   
     47. D(H  11,C   6,C   5,H  10)      0.0051         0.018181   
     48. D(C   4,C   6,C   5,H  10)   -179.9827         0.018181   
     49. D(C   4,C   6,C   5,C   3)      0.0339         0.018181   
     50. D(H  11,C   6,C   4,H   9)     -0.0008         0.040956   
     51. D(H  11,C   6,C   4,N   1)    179.9987         0.040956   
     52. D(H  11,C   6,C   5,C   3)   -179.9783         0.018181   
     53. D(C   5,C   6,C   4,H   9)    179.9867         0.040956   
     54. D(C   5,C   6,C   4,N   1)     -0.0138         0.040956   
    -----------------------------------------------------------------

Number of atoms                         .... 12
Number of degrees of freedom            .... 54

         *************************************************************
         *                GEOMETRY OPTIMIZATION CYCLE   1            *
         *************************************************************
---------------------------------
CARTESIAN COORDINATES (ANGSTROEM)
---------------------------------
  O      2.282000   -0.023100    0.000100
  N      0.285500   -1.188600    0.000100
  C      1.053700   -0.034100   -0.000200
  C      0.287800    1.247800   -0.000100
  C     -1.087600   -1.184700    0.000000
  C     -1.051800    1.216600    0.000200
  C     -1.769600   -0.033900   -0.000100
  H      0.753400   -2.090100    0.000200
  H      0.840900    2.179200    0.000000
  H     -1.569100   -2.154200    0.000000
  H     -1.628200    2.134900    0.000400
  H     -2.852800   -0.016400   -0.000200

----------------------------
CARTESIAN COORDINATES (A.U.)
----------------------------
  NO LB      ZA    FRAG     MASS         X           Y           Z
   0 O     8.0000    0    15.999    4.312355   -0.043653    0.000189
   1 N     7.0000    0    14.007    0.539517   -2.246128    0.000189
   2 C     6.0000    0    12.011    1.991204   -0.064440   -0.000378
   3 C     6.0000    0    12.011    0.543863    2.358000   -0.000189
   4 C     6.0000    0    12.011   -2.055266   -2.238759    0.000000
   5 C     6.0000    0    12.011   -1.987614    2.299041    0.000378
   6 C     6.0000    0    12.011   -3.344059   -0.064062   -0.000189
   7 H     1.0000    0     1.008    1.423720   -3.949717    0.000378
   8 H     1.0000    0     1.008    1.589071    4.118091    0.000000
   9 H     1.0000    0     1.008   -2.965169   -4.070848    0.000000
  10 H     1.0000    0     1.008   -3.076852    4.034376    0.000756
  11 H     1.0000    0     1.008   -5.391011   -0.030992   -0.000378

--------------------------------
INTERNAL COORDINATES (ANGSTROEM)
--------------------------------
 O      0   0   0     0.000000000000     0.00000000     0.00000000
 N      1   0   0     2.311796379442     0.00000000     0.00000000
 C      1   2   0     1.228349290715    29.76207539     0.00000000
 C      3   1   2     1.493275068432   120.34405728   179.96289118
 C      2   1   3     1.373105542193   149.56209450     0.00000000
 C      4   3   1     1.339963316662   119.52294817   180.03102974
 C      5   2   1     1.337708731376   120.81504190     0.00000000
 H      2   1   3     1.015693196787    92.84478007   179.97745830
 H      4   3   1     1.083247700205   118.43942622     0.00000000
 H      5   2   1     1.082484410973   116.24845354   179.99495616
 H      6   4   3     1.084210260973   120.78152851   179.99248414
 H      7   5   2     1.083341358945   121.57788645   179.99872854

---------------------------
INTERNAL COORDINATES (A.U.)
---------------------------
 O      0   0   0     0.000000000000     0.00000000     0.00000000
 N      1   0   0     4.368662034536     0.00000000     0.00000000
 C      1   2   0     2.321243756248    29.76207539     0.00000000
 C      3   1   2     2.821880921949   120.34405728   179.96289118
 C      2   1   3     2.594793427713   149.56209450     0.00000000
 C      4   3   1     2.532163697992   119.52294817   180.03102974
 C      5   2   1     2.527903149256   120.81504190     0.00000000
 H      2   1   3     1.919381978015    92.84478007   179.97745830
 H      4   3   1     2.047041488588   118.43942622     0.00000000
 H      5   2   1     2.045599080978   116.24845354   179.99495616
 H      6   4   3     2.048860464827   120.78152851   179.99248414
 H      7   5   2     2.047218477955   121.57788645   179.99872854

---------------------
BASIS SET INFORMATION
---------------------
There are 4 groups of distinct atoms

 Group   1 Type O   : 11s6p2d1f contracted to 5s3p2d1f pattern {62111/411/11/1}
 Group   2 Type N   : 11s6p2d1f contracted to 5s3p2d1f pattern {62111/411/11/1}
 Group   3 Type C   : 11s6p2d1f contracted to 5s3p2d1f pattern {62111/411/11/1}
 Group   4 Type H   : 5s1p contracted to 3s1p pattern {311/1}

Atom   0O    basis set group =>   1
Atom   1N    basis set group =>   2
Atom   2C    basis set group =>   3
Atom   3C    basis set group =>   3
Atom   4C    basis set group =>   3
Atom   5C    basis set group =>   3
Atom   6C    basis set group =>   3
Atom   7H    basis set group =>   4
Atom   8H    basis set group =>   4
Atom   9H    basis set group =>   4
Atom  10H    basis set group =>   4
Atom  11H    basis set group =>   4
---------------------------------
AUXILIARY/J BASIS SET INFORMATION
---------------------------------
There are 4 groups of distinct atoms

 Group   1 Type O   : 12s5p4d2f1g contracted to 6s4p3d1f1g pattern {711111/2111/211/2/1}
 Group   2 Type N   : 12s5p4d2f1g contracted to 6s4p3d1f1g pattern {711111/2111/211/2/1}
 Group   3 Type C   : 12s5p4d2f1g contracted to 6s4p3d1f1g pattern {711111/2111/211/2/1}
 Group   4 Type H   : 5s2p1d contracted to 3s1p1d pattern {311/2/1}

Atom   0O    basis set group =>   1
Atom   1N    basis set group =>   2
Atom   2C    basis set group =>   3
Atom   3C    basis set group =>   3
Atom   4C    basis set group =>   3
Atom   5C    basis set group =>   3
Atom   6C    basis set group =>   3
Atom   7H    basis set group =>   4
Atom   8H    basis set group =>   4
Atom   9H    basis set group =>   4
Atom  10H    basis set group =>   4
Atom  11H    basis set group =>   4


           ************************************************************
           *        Program running with 6 parallel MPI-processes     *
           *              working on a common directory               *
           ************************************************************
------------------------------------------------------------------------------
                           ORCA GTO INTEGRAL CALCULATION
                           -- RI-GTO INTEGRALS CHOSEN --
------------------------------------------------------------------------------
------------------------------------------------------------------------------
                   ___                                                        
                  /   \      - P O W E R E D   B Y -                         
                 /     \                                                     
                 |  |  |   _    _      __       _____    __    __             
                 |  |  |  | |  | |    /  \     |  _  \  |  |  /  |          
                  \  \/   | |  | |   /    \    | | | |  |  | /  /          
                 / \  \   | |__| |  /  /\  \   | |_| |  |  |/  /          
                |  |  |   |  __  | /  /__\  \  |    /   |      \           
                |  |  |   | |  | | |   __   |  |    \   |  |\   \          
                \     /   | |  | | |  |  |  |  | |\  \  |  | \   \       
                 \___/    |_|  |_| |__|  |__|  |_| \__\ |__|  \__/        
                                                                              
                      - O R C A' S   B I G   F R I E N D -                    
                                      &                                       
                       - I N T E G R A L  F E E D E R -                       
                                                                              
 v1 FN, 2020, v2 2021                                                         
------------------------------------------------------------------------------


Reading SHARK input file hydro2.SHARKINP.tmp ... ok
----------------------
SHARK INTEGRAL PACKAGE
----------------------

Number of atoms                             ...     12
Number of basis functions                   ...    247
Number of shells                            ...     97
Maximum angular momentum                    ...      3
Integral batch strategy                     ... SHARK/LIBINT Hybrid
RI-J (if used) integral strategy            ... SPLIT-RIJ (Revised 2003 algorithm where possible)
Printlevel                                  ...      1
Contraction scheme used                     ... SEGMENTED contraction
Coulomb Range Separation                    ... NOT USED
Exchange Range Separation                   ... NOT USED
Finite Nucleus Model                        ... NOT USED
Auxiliary Coulomb fitting basis             ... AVAILABLE
   # of basis functions in Aux-J            ...    398
   # of shells in Aux-J                     ...    130
   Maximum angular momentum in Aux-J        ...      4
Auxiliary J/K fitting basis                 ... NOT available
Auxiliary Correlation fitting basis         ... NOT available
Auxiliary 'external' fitting basis          ... NOT available
Integral threshold                          ...     2.500000e-11
Primitive cut-off                           ...     2.500000e-12
Primitive pair pre-selection threshold      ...     2.500000e-12

Calculating pre-screening integrals         ... done (  0.0 sec) Dimension = 97
Organizing shell pair data                  ... done (  0.1 sec)
Shell pair information
Total number of shell pairs                 ...      4753
Shell pairs after pre-screening             ...      4509
Total number of primitive shell pairs       ...     14704
Primitive shell pairs kept                  ...     10783
          la=0 lb=0:   1151 shell pairs
          la=1 lb=0:   1240 shell pairs
          la=1 lb=1:    345 shell pairs
          la=2 lb=0:    672 shell pairs
          la=2 lb=1:    358 shell pairs
          la=2 lb=2:    102 shell pairs
          la=3 lb=0:    337 shell pairs
          la=3 lb=1:    179 shell pairs
          la=3 lb=2:     97 shell pairs
          la=3 lb=3:     28 shell pairs

Calculating one electron integrals          ... done (  0.0 sec)
Calculating RI/J V-Matrix + Cholesky decomp.... done (  0.1 sec)
Calculating Nuclear repulsion               ... done (  0.0 sec) ENN=    275.108826424787 Eh

SHARK setup successfully completed in   0.9 seconds

Maximum memory used throughout the entire GTOINT-calculation: 18.1 MB


           ************************************************************
           *        Program running with 6 parallel MPI-processes     *
           *              working on a common directory               *
           ************************************************************
-------------------------------------------------------------------------------
                                 ORCA SCF
-------------------------------------------------------------------------------

------------
SCF SETTINGS
------------
Hamiltonian:
 Density Functional     Method          .... DFT(GTOs)
 Exchange Functional    Exchange        .... B88
   X-Alpha parameter    XAlpha          ....  0.666667
   Becke's b parameter  XBeta           ....  0.004200
 Correlation Functional Correlation     .... LYP
 Gradients option       PostSCFGGA      .... off
   Density functional embedding theory  .... OFF
   NL short-range parameter             ....  4.000000
 RI-approximation to the Coulomb term is turned on
   Number of AuxJ basis functions       .... 398


General Settings:
 Integral files         IntName         .... hydro2
 Hartree-Fock type      HFTyp           .... RHF
 Total Charge           Charge          ....    0
 Multiplicity           Mult            ....    1
 Number of Electrons    NEL             ....   50
 Basis Dimension        Dim             ....  247
 Nuclear Repulsion      ENuc            ....    275.1088264248 Eh

Convergence Acceleration:
 DIIS                   CNVDIIS         .... on
   Start iteration      DIISMaxIt       ....    12
   Startup error        DIISStart       ....  0.200000
   # of expansion vecs  DIISMaxEq       ....     5
   Bias factor          DIISBfac        ....   1.050
   Max. coefficient     DIISMaxC        ....  10.000
 Trust-Rad. Augm. Hess. CNVTRAH         .... auto
   Auto Start mean grad. ratio tolernc. ....  1.125000
   Auto Start start iteration           ....    20
   Auto Start num. interpolation iter.  ....    10
   Max. Number of Micro iterations      ....    16
   Max. Number of Macro iterations      .... Maxiter - #DIIS iter
   Number of Davidson start vectors     ....     2
   Converg. threshold I  (grad. norm)   ....   1.000e-05
   Converg. threshold II (energy diff.) ....   1.000e-08
   Grad. Scal. Fac. for Micro threshold ....   0.100
   Minimum threshold for Micro iter.    ....   0.010
   NR start threshold (gradient norm)   ....   0.001
   Initial trust radius                 ....   0.400
   Minimum AH scaling param. (alpha)    ....   1.000
   Maximum AH scaling param. (alpha)    .... 1000.000
   Orbital update algorithm             .... Taylor
   White noise on init. David. guess    .... on
   Maximum white noise                  ....   0.010
   Quad. conv. algorithm                .... NR
 SOSCF                  CNVSOSCF        .... on
   Start iteration      SOSCFMaxIt      ....   150
   Startup grad/error   SOSCFStart      ....  0.003300
 Level Shifting         CNVShift        .... on
   Level shift para.    LevelShift      ....    0.2500
   Turn off err/grad.   ShiftErr        ....    0.0010
 Zerner damping         CNVZerner       .... off
 Static damping         CNVDamp         .... on
   Fraction old density DampFac         ....    0.7000
   Max. Damping (<1)    DampMax         ....    0.9800
   Min. Damping (>=0)   DampMin         ....    0.0000
   Turn off err/grad.   DampErr         ....    0.1000
 Fernandez-Rico         CNVRico         .... off

SCF Procedure:
 Maximum # iterations   MaxIter         ....   125
 SCF integral mode      SCFMode         .... Direct
   Integral package                     .... SHARK and LIBINT hybrid scheme
 Reset frequency        DirectResetFreq ....    20
 Integral Threshold     Thresh          ....  2.500e-11 Eh
 Primitive CutOff       TCut            ....  2.500e-12 Eh

Convergence Tolerance:
 Convergence Check Mode ConvCheckMode   .... Total+1el-Energy
 Convergence forced     ConvForced      .... 0
 Energy Change          TolE            ....  1.000e-08 Eh
 1-El. energy change                    ....  1.000e-05 Eh
 Orbital Gradient       TolG            ....  1.000e-05
 Orbital Rotation angle TolX            ....  1.000e-05
 DIIS Error             TolErr          ....  5.000e-07


Diagonalization of the overlap matrix:
Smallest eigenvalue                        ... 5.161e-05
Time for diagonalization                   ...    0.035 sec
Threshold for overlap eigenvalues          ... 1.000e-08
Number of eigenvalues below threshold      ... 0
Time for construction of square roots      ...    0.019 sec
Total time needed                          ...    0.055 sec

Time for model grid setup =    0.263 sec

------------------------------
INITIAL GUESS: MODEL POTENTIAL
------------------------------
Loading Hartree-Fock densities                     ... done
Calculating cut-offs                               ... done
Initializing the effective Hamiltonian             ... done
Setting up the integral package (SHARK)            ... done
Starting the Coulomb interaction                   ... done (   0.3 sec)
Reading the grid                                   ... done
Mapping shells                                     ... done
Starting the XC term evaluation                    ... done (   0.1 sec)
  promolecular density results
     # of electrons  =     49.999092200
     EX              =    -41.966307670
     EC              =     -1.702864093
     EX+EC           =    -43.669171763
Transforming the Hamiltonian                       ... done (   0.0 sec)
Diagonalizing the Hamiltonian                      ... done (   0.0 sec)
Back transforming the eigenvectors                 ... done (   0.0 sec)
Now organizing SCF variables                       ... done
                      ------------------
                      INITIAL GUESS DONE (   0.7 sec)
                      ------------------
-------------------
DFT GRID GENERATION
-------------------

General Integration Accuracy     IntAcc      ... 4.388
Radial Grid Type                 RadialGrid  ... OptM3 with GC (2021)
Angular Grid (max. ang.)         AngularGrid ... 4 (Lebedev-302)
Angular grid pruning method      GridPruning ... 4 (adaptive)
Weight generation scheme         WeightScheme... Becke
Basis function cutoff            BFCut       ... 1.0000e-11
Integration weight cutoff        WCut        ... 1.0000e-14
Angular grids for H and He will be reduced by one unit
Partially contracted basis set               ... off
Rotationally invariant grid construction     ... off

Total number of grid points                  ...    58386
Total number of batches                      ...      920
Average number of points per batch           ...       63
Average number of grid points per atom       ...     4866
Time for grid setup =    0.327 sec

--------------
SCF ITERATIONS
--------------
ITER       Energy         Delta-E        Max-DP      RMS-DP      [F,P]     Damp
               ***  Starting incremental Fock matrix formation  ***
  0   -323.3073319920   0.000000000000 0.57792142  0.00507767  0.3233276 0.7000
  1   -323.4269440226  -0.119612030562 0.35543141  0.00315813  0.0885386 0.7000
                               ***Turning on DIIS***
  2   -323.4613895997  -0.034445577106 0.15087862  0.00180153  0.0331688 0.0000
  3   -323.5269688900  -0.065579290353 0.33190440  0.00285407  0.0504062 0.0000
  4   -323.5398261080  -0.012857218013 0.02057985  0.00032711  0.0400202 0.0000
  5   -323.5422628189  -0.002436710900 0.00622155  0.00011682  0.0034529 0.0000
                      *** Initiating the SOSCF procedure ***
                           *** Shutting down DIIS ***
                      *** Re-Reading the Fockian *** 
                      *** Removing any level shift *** 
ITER      Energy       Delta-E        Grad      Rot      Max-DP    RMS-DP
  6   -323.54234860  -0.0000857819  0.000358  0.000358  0.002080  0.000051
               *** Restarting incremental Fock matrix formation ***
  7   -323.54235659  -0.0000079885  0.000209  0.000816  0.005739  0.000065
  8   -323.54235247   0.0000041186  0.000622  0.001544  0.001749  0.000021
  9   -323.54235835  -0.0000058749  0.000125  0.000602  0.000735  0.000014
 10   -323.54235724   0.0000011093  0.000245  0.000401  0.000822  0.000008
 11   -323.54235865  -0.0000014150  0.000053  0.000253  0.000866  0.000008
 12   -323.54235850   0.0000001477  0.000106  0.000163  0.000560  0.000005
 13   -323.54235869  -0.0000001822  0.000004  0.000033  0.000044  0.000001
 14   -323.54235869  -0.0000000012  0.000004  0.000015  0.000016  0.000000
                 **** Energy Check signals convergence ****
              ***Rediagonalizing the Fockian in SOSCF/NRSCF***

               *****************************************************
               *                     SUCCESS                       *
               *           SCF CONVERGED AFTER  15 CYCLES          *
               *****************************************************


----------------
TOTAL SCF ENERGY
----------------

Total Energy       :         -323.54235869 Eh           -8804.03517 eV

Components:
Nuclear Repulsion  :          275.10882642 Eh            7486.09175 eV
Electronic Energy  :         -598.65118511 Eh          -16290.12692 eV
One Electron Energy:         -983.01299705 Eh          -26749.14355 eV
Two Electron Energy:          384.36181194 Eh           10459.01663 eV

Virial components:
Potential Energy   :         -646.09022890 Eh          -17581.00893 eV
Kinetic Energy     :          322.54787021 Eh            8776.97376 eV
Virial Ratio       :            2.00308323


DFT components:
N(Alpha)           :       25.000011041277 electrons
N(Beta)            :       25.000011041277 electrons
N(Total)           :       50.000022082554 electrons
E(X)               :      -42.758375240578 Eh       
E(C)               :       -1.716144136818 Eh       
E(XC)              :      -44.474519377397 Eh       
DFET-embed. en.    :        0.000000000000 Eh       

---------------
SCF CONVERGENCE
---------------

  Last Energy change         ...   -5.7651e-10  Tolerance :   1.0000e-08
  Last MAX-Density change    ...    2.1709e-05  Tolerance :   1.0000e-07
  Last RMS-Density change    ...    3.7044e-07  Tolerance :   5.0000e-09
  Last Orbital Gradient      ...    2.5671e-06  Tolerance :   1.0000e-05
  Last Orbital Rotation      ...    8.9412e-06  Tolerance :   1.0000e-05

             **** THE GBW FILE WAS UPDATED (hydro2.gbw) ****
             **** DENSITY hydro2.scfp WAS UPDATED ****
             **** ENERGY FILE WAS UPDATED (hydro2.en.tmp) ****
             **** THE GBW FILE WAS UPDATED (hydro2.gbw) ****
             **** DENSITY hydro2.scfp WAS UPDATED ****
----------------
ORBITAL ENERGIES
----------------

  NO   OCC          E(Eh)            E(eV) 
   0   2.0000     -18.727507      -509.6014 
   1   2.0000     -14.067409      -382.7937 
   2   2.0000     -10.003068      -272.1973 
   3   2.0000      -9.966023      -271.1893 
   4   2.0000      -9.927657      -270.1453 
   5   2.0000      -9.917941      -269.8809 
   6   2.0000      -9.916589      -269.8441 
   7   2.0000      -0.937716       -25.5166 
   8   2.0000      -0.872454       -23.7407 
   9   2.0000      -0.742374       -20.2010 
  10   2.0000      -0.683903       -18.6099 
  11   2.0000      -0.583653       -15.8820 
  12   2.0000      -0.581015       -15.8102 
  13   2.0000      -0.504482       -13.7276 
  14   2.0000      -0.454105       -12.3568 
  15   2.0000      -0.436666       -11.8823 
  16   2.0000      -0.414571       -11.2810 
  17   2.0000      -0.392487       -10.6801 
  18   2.0000      -0.372981       -10.1493 
  19   2.0000      -0.339151        -9.2288 
  20   2.0000      -0.330927        -9.0050 
  21   2.0000      -0.303053        -8.2465 
  22   2.0000      -0.276512        -7.5243 
  23   2.0000      -0.202988        -5.5236 
  24   2.0000      -0.196328        -5.3424 
  25   0.0000      -0.069671        -1.8958 
  26   0.0000      -0.024532        -0.6675 
  27   0.0000      -0.001729        -0.0471 
  28   0.0000       0.033995         0.9250 
  29   0.0000       0.052238         1.4215 
  30   0.0000       0.074733         2.0336 
  31   0.0000       0.083060         2.2602 
  32   0.0000       0.090392         2.4597 
  33   0.0000       0.092924         2.5286 
  34   0.0000       0.138076         3.7572 
  35   0.0000       0.151186         4.1140 
  36   0.0000       0.167080         4.5465 
  37   0.0000       0.168528         4.5859 
  38   0.0000       0.195660         5.3242 
  39   0.0000       0.210018         5.7149 
  40   0.0000       0.211696         5.7605 
  41   0.0000       0.217767         5.9258 
  42   0.0000       0.229218         6.2373 
  43   0.0000       0.235086         6.3970 
  44   0.0000       0.269725         7.3396 
  45   0.0000       0.284438         7.7399 
  46   0.0000       0.290229         7.8975 
  47   0.0000       0.300333         8.1725 
  48   0.0000       0.312486         8.5032 
  49   0.0000       0.327004         8.8982 
  50   0.0000       0.343924         9.3586 
  51   0.0000       0.373483        10.1630 
  52   0.0000       0.382194        10.4000 
  53   0.0000       0.387276        10.5383 
  54   0.0000       0.400791        10.9061 
  55   0.0000       0.405627        11.0377 
  56   0.0000       0.414374        11.2757 
  57   0.0000       0.425190        11.5700 
  58   0.0000       0.433700        11.8016 
  59   0.0000       0.438006        11.9188 
  60   0.0000       0.441151        12.0043 
  61   0.0000       0.475482        12.9385 
  62   0.0000       0.484171        13.1750 
  63   0.0000       0.527675        14.3588 
  64   0.0000       0.568031        15.4569 
  65   0.0000       0.570472        15.5233 
  66   0.0000       0.584725        15.9112 
  67   0.0000       0.596323        16.2268 
  68   0.0000       0.600682        16.3454 
  69   0.0000       0.627497        17.0751 
  70   0.0000       0.663387        18.0517 
  71   0.0000       0.701240        19.0817 
  72   0.0000       0.704791        19.1783 
  73   0.0000       0.737268        20.0621 
  74   0.0000       0.745348        20.2819 
  75   0.0000       0.754503        20.5311 
  76   0.0000       0.780918        21.2499 
  77   0.0000       0.784288        21.3416 
  78   0.0000       0.828544        22.5458 
  79   0.0000       0.838956        22.8292 
  80   0.0000       0.879251        23.9256 
  81   0.0000       0.928986        25.2790 
  82   0.0000       0.943982        25.6870 
  83   0.0000       1.001494        27.2520 
  84   0.0000       1.017775        27.6951 
  85   0.0000       1.035018        28.1643 
  86   0.0000       1.049061        28.5464 
  87   0.0000       1.074526        29.2393 
  88   0.0000       1.122812        30.5533 
  89   0.0000       1.123959        30.5845 
  90   0.0000       1.145917        31.1820 
  91   0.0000       1.202149        32.7121 
  92   0.0000       1.219467        33.1834 
  93   0.0000       1.219995        33.1978 
  94   0.0000       1.231277        33.5048 
  95   0.0000       1.242914        33.8214 
  96   0.0000       1.260220        34.2923 
  97   0.0000       1.328508        36.1505 
  98   0.0000       1.343440        36.5568 
  99   0.0000       1.375829        37.4382 
 100   0.0000       1.404821        38.2271 
 101   0.0000       1.406497        38.2727 
 102   0.0000       1.423586        38.7377 
 103   0.0000       1.450915        39.4814 
 104   0.0000       1.458190        39.6794 
 105   0.0000       1.468417        39.9577 
 106   0.0000       1.479678        40.2641 
 107   0.0000       1.501195        40.8496 
 108   0.0000       1.554205        42.2921 
 109   0.0000       1.584981        43.1295 
 110   0.0000       1.588968        43.2380 
 111   0.0000       1.627938        44.2985 
 112   0.0000       1.638580        44.5880 
 113   0.0000       1.660629        45.1880 
 114   0.0000       1.686032        45.8793 
 115   0.0000       1.695806        46.1452 
 116   0.0000       1.705282        46.4031 
 117   0.0000       1.786015        48.5999 
 118   0.0000       1.794245        48.8239 
 119   0.0000       1.824285        49.6413 
 120   0.0000       1.885737        51.3135 
 121   0.0000       1.920915        52.2707 
 122   0.0000       1.960515        53.3483 
 123   0.0000       1.968058        53.5536 
 124   0.0000       1.999772        54.4166 
 125   0.0000       2.008454        54.6528 
 126   0.0000       2.058563        56.0164 
 127   0.0000       2.076446        56.5030 
 128   0.0000       2.110031        57.4169 
 129   0.0000       2.123040        57.7709 
 130   0.0000       2.141960        58.2857 
 131   0.0000       2.162692        58.8498 
 132   0.0000       2.243410        61.0463 
 133   0.0000       2.314217        62.9730 
 134   0.0000       2.317757        63.0694 
 135   0.0000       2.359689        64.2104 
 136   0.0000       2.388130        64.9843 
 137   0.0000       2.417175        65.7747 
 138   0.0000       2.472267        67.2738 
 139   0.0000       2.482229        67.5449 
 140   0.0000       2.494892        67.8895 
 141   0.0000       2.507168        68.2235 
 142   0.0000       2.518509        68.5321 
 143   0.0000       2.551113        69.4193 
 144   0.0000       2.586842        70.3916 
 145   0.0000       2.587602        70.4122 
 146   0.0000       2.614813        71.1527 
 147   0.0000       2.616025        71.1857 
 148   0.0000       2.642948        71.9183 
 149   0.0000       2.683343        73.0175 
 150   0.0000       2.713898        73.8489 
 151   0.0000       2.723775        74.1177 
 152   0.0000       2.724174        74.1286 
 153   0.0000       2.739834        74.5547 
 154   0.0000       2.793610        76.0180 
 155   0.0000       2.795415        76.0671 
 156   0.0000       2.831533        77.0499 
 157   0.0000       2.851702        77.5988 
 158   0.0000       2.879965        78.3678 
 159   0.0000       2.917182        79.3806 
 160   0.0000       2.946800        80.1865 
 161   0.0000       2.949167        80.2509 
 162   0.0000       2.967018        80.7367 
 163   0.0000       2.967851        80.7593 
 164   0.0000       2.996453        81.5376 
 165   0.0000       3.015446        82.0545 
 166   0.0000       3.039052        82.6968 
 167   0.0000       3.064822        83.3981 
 168   0.0000       3.092287        84.1454 
 169   0.0000       3.104500        84.4777 
 170   0.0000       3.112452        84.6941 
 171   0.0000       3.118082        84.8473 
 172   0.0000       3.138179        85.3942 
 173   0.0000       3.166502        86.1649 
 174   0.0000       3.200285        87.0842 
 175   0.0000       3.224258        87.7365 
 176   0.0000       3.225207        87.7623 
 177   0.0000       3.286498        89.4302 
 178   0.0000       3.305569        89.9491 
 179   0.0000       3.314954        90.2045 
 180   0.0000       3.358542        91.3906 
 181   0.0000       3.371992        91.7566 
 182   0.0000       3.402773        92.5942 
 183   0.0000       3.410956        92.8168 
 184   0.0000       3.421743        93.1104 
 185   0.0000       3.457306        94.0781 
 186   0.0000       3.497006        95.1584 
 187   0.0000       3.515833        95.6707 
 188   0.0000       3.549121        96.5765 
 189   0.0000       3.656259        99.4919 
 190   0.0000       3.682718       100.2119 
 191   0.0000       3.719684       101.2177 
 192   0.0000       3.780836       102.8818 
 193   0.0000       3.800969       103.4296 
 194   0.0000       3.855126       104.9033 
 195   0.0000       3.881407       105.6184 
 196   0.0000       3.925346       106.8141 
 197   0.0000       3.940612       107.2295 
 198   0.0000       3.991880       108.6246 
 199   0.0000       4.075832       110.9090 
 200   0.0000       4.137978       112.6001 
 201   0.0000       4.162686       113.2724 
 202   0.0000       4.193538       114.1120 
 203   0.0000       4.225544       114.9829 
 204   0.0000       4.237755       115.3152 
 205   0.0000       4.322701       117.6267 
 206   0.0000       4.325319       117.6979 
 207   0.0000       4.355034       118.5065 
 208   0.0000       4.456009       121.2542 
 209   0.0000       4.548774       123.7784 
 210   0.0000       4.574029       124.4656 
 211   0.0000       4.584178       124.7418 
 212   0.0000       4.660135       126.8087 
 213   0.0000       4.667812       127.0176 
 214   0.0000       4.783458       130.1645 
 215   0.0000       4.838998       131.6758 
 216   0.0000       4.863670       132.3472 
 217   0.0000       4.944128       134.5366 
 218   0.0000       4.969932       135.2387 
 219   0.0000       5.008480       136.2877 
 220   0.0000       5.030947       136.8990 
 221   0.0000       5.088828       138.4740 
 222   0.0000       5.137434       139.7967 
 223   0.0000       5.183077       141.0387 
 224   0.0000       5.188873       141.1964 
 225   0.0000       5.324287       144.8812 
 226   0.0000       5.383403       146.4898 
 227   0.0000       5.463916       148.6807 
 228   0.0000       5.557507       151.2275 
 229   0.0000       5.590668       152.1298 
 230   0.0000       5.731034       155.9494 
 231   0.0000       5.881960       160.0563 
 232   0.0000       6.007595       163.4750 
 233   0.0000       6.251358       170.1081 
 234   0.0000       6.274956       170.7502 
 235   0.0000       6.467629       175.9931 
 236   0.0000       6.657022       181.1468 
 237   0.0000       6.708038       182.5350 
 238   0.0000       6.955091       189.2577 
 239   0.0000       6.995364       190.3535 
 240   0.0000      21.910465       596.2141 
 241   0.0000      22.141788       602.5087 
 242   0.0000      22.457793       611.1076 
 243   0.0000      22.650618       616.3546 
 244   0.0000      23.038507       626.9097 
 245   0.0000      32.036446       871.7560 
 246   0.0000      43.500626      1183.7122 

                    ********************************
                    * MULLIKEN POPULATION ANALYSIS *
                    ********************************

-----------------------
MULLIKEN ATOMIC CHARGES
-----------------------
   0 O :   -0.316658
   1 N :   -0.156220
   2 C :    0.180103
   3 C :   -0.176730
   4 C :    0.010743
   5 C :   -0.043994
   6 C :   -0.149659
   7 H :    0.204010
   8 H :    0.111973
   9 H :    0.125395
  10 H :    0.106305
  11 H :    0.104732
Sum of atomic charges:   -0.0000000

--------------------------------
MULLIKEN REDUCED ORBITAL CHARGES
--------------------------------
  0 O s       :     3.791280  s :     3.791280
      pz      :     1.434130  p :     4.495575
      px      :     1.308591
      py      :     1.752854
      dz2     :     0.002422  d :     0.028167
      dxz     :     0.010129
      dyz     :     0.000071
      dx2y2   :     0.007459
      dxy     :     0.008086
      f0      :     0.000187  f :     0.001636
      f+1     :     0.000150
      f-1     :     0.000024
      f+2     :     0.000401
      f-2     :     0.000008
      f+3     :     0.000358
      f-3     :     0.000509
  1 N s       :     3.446445  s :     3.446445
      pz      :     1.522793  p :     3.652359
      px      :     1.052250
      py      :     1.077316
      dz2     :     0.004853  d :     0.053338
      dxz     :     0.013085
      dyz     :     0.004378
      dx2y2   :     0.013524
      dxy     :     0.017499
      f0      :     0.000764  f :     0.004078
      f+1     :     0.000528
      f-1     :     0.000538
      f+2     :     0.000369
      f-2     :     0.000215
      f+3     :     0.000755
      f-3     :     0.000910
  2 C s       :     3.064558  s :     3.064558
      pz      :     0.845160  p :     2.510881
      px      :     0.807378
      py      :     0.858343
      dz2     :     0.008214  d :     0.224073
      dxz     :     0.057779
      dyz     :     0.020107
      dx2y2   :     0.034616
      dxy     :     0.103357
      f0      :     0.002433  f :     0.020385
      f+1     :     0.001610
      f-1     :     0.000868
      f+2     :     0.002770
      f-2     :     0.001570
      f+3     :     0.003577
      f-3     :     0.007555
  3 C s       :     3.266349  s :     3.266349
      pz      :     0.984511  p :     2.843209
      px      :     0.921449
      py      :     0.937250
      dz2     :     0.004212  d :     0.060490
      dxz     :     0.015215
      dyz     :     0.005476
      dx2y2   :     0.006827
      dxy     :     0.028760
      f0      :     0.001396  f :     0.006682
      f+1     :     0.000382
      f-1     :     0.000632
      f+2     :     0.000614
      f-2     :     0.000364
      f+3     :     0.001171
      f-3     :     0.002121
  4 C s       :     3.158928  s :     3.158928
      pz      :     0.969781  p :     2.723180
      px      :     0.755169
      py      :     0.998230
      dz2     :     0.004550  d :     0.097025
      dxz     :     0.032643
      dyz     :     0.009778
      dx2y2   :     0.031412
      dxy     :     0.018642
      f0      :     0.001804  f :     0.010124
      f+1     :     0.000975
      f-1     :     0.000464
      f+2     :     0.001863
      f-2     :     0.000463
      f+3     :     0.001769
      f-3     :     0.002786
  5 C s       :     3.179848  s :     3.179848
      pz      :     0.927961  p :     2.782835
      px      :     0.921094
      py      :     0.933780
      dz2     :     0.004204  d :     0.074374
      dxz     :     0.018708
      dyz     :     0.009736
      dx2y2   :     0.012950
      dxy     :     0.028775
      f0      :     0.001465  f :     0.006937
      f+1     :     0.000293
      f-1     :     0.000539
      f+2     :     0.000992
      f-2     :     0.000361
      f+3     :     0.001072
      f-3     :     0.002217
  6 C s       :     3.209880  s :     3.209880
      pz      :     1.041009  p :     2.866654
      px      :     0.952162
      py      :     0.873483
      dz2     :     0.004993  d :     0.066144
      dxz     :     0.005596
      dyz     :     0.020021
      dx2y2   :     0.024866
      dxy     :     0.010668
      f0      :     0.001535  f :     0.006981
      f+1     :     0.000625
      f-1     :     0.000379
      f+2     :     0.000150
      f-2     :     0.001151
      f+3     :     0.001029
      f-3     :     0.002113
  7 H s       :     0.759007  s :     0.759007
      pz      :     0.010820  p :     0.036983
      px      :     0.008841
      py      :     0.017322
  8 H s       :     0.865658  s :     0.865658
      pz      :     0.005093  p :     0.022369
      px      :     0.006198
      py      :     0.011078
  9 H s       :     0.852987  s :     0.852987
      pz      :     0.004888  p :     0.021618
      px      :     0.005244
      py      :     0.011486
 10 H s       :     0.871746  s :     0.871746
      pz      :     0.004621  p :     0.021949
      px      :     0.006462
      py      :     0.010866
 11 H s       :     0.872646  s :     0.872646
      pz      :     0.005634  p :     0.022622
      px      :     0.013409
      py      :     0.003579


                     *******************************
                     * LOEWDIN POPULATION ANALYSIS *
                     *******************************

----------------------
LOEWDIN ATOMIC CHARGES
----------------------
   0 O :    0.060676
   1 N :    0.207766
   2 C :   -0.428138
   3 C :   -0.109763
   4 C :   -0.191386
   5 C :   -0.133410
   6 C :   -0.178201
   7 H :    0.194659
   8 H :    0.147941
   9 H :    0.140956
  10 H :    0.143465
  11 H :    0.145435

-------------------------------
LOEWDIN REDUCED ORBITAL CHARGES
-------------------------------
  0 O s       :     3.411191  s :     3.411191
      pz      :     1.356581  p :     4.455860
      px      :     1.469729
      py      :     1.629550
      dz2     :     0.007834  d :     0.066331
      dxz     :     0.015818
      dyz     :     0.000069
      dx2y2   :     0.024255
      dxy     :     0.018355
      f0      :     0.000518  f :     0.005942
      f+1     :     0.000958
      f-1     :     0.000109
      f+2     :     0.000883
      f-2     :     0.000020
      f+3     :     0.001800
      f-3     :     0.001654
  1 N s       :     2.923699  s :     2.923699
      pz      :     1.339575  p :     3.627850
      px      :     1.163221
      py      :     1.125054
      dz2     :     0.015903  d :     0.225263
      dxz     :     0.039149
      dyz     :     0.013436
      dx2y2   :     0.070048
      dxy     :     0.086727
      f0      :     0.001232  f :     0.015422
      f+1     :     0.001940
      f-1     :     0.001717
      f+2     :     0.002085
      f-2     :     0.001071
      f+3     :     0.002529
      f-3     :     0.004847
  2 C s       :     2.742115  s :     2.742115
      pz      :     0.807802  p :     2.722819
      px      :     0.960298
      py      :     0.954719
      dz2     :     0.054561  d :     0.840407
      dxz     :     0.169178
      dyz     :     0.072124
      dx2y2   :     0.211851
      dxy     :     0.332694
      f0      :     0.007076  f :     0.122797
      f+1     :     0.010684
      f-1     :     0.005809
      f+2     :     0.020871
      f-2     :     0.009308
      f+3     :     0.020332
      f-3     :     0.048718
  3 C s       :     2.787504  s :     2.787504
      pz      :     0.902730  p :     2.942088
      px      :     1.066732
      py      :     0.972625
      dz2     :     0.027255  d :     0.340221
      dxz     :     0.047563
      dyz     :     0.018574
      dx2y2   :     0.094160
      dxy     :     0.152670
      f0      :     0.003168  f :     0.039950
      f+1     :     0.004521
      f-1     :     0.003557
      f+2     :     0.004511
      f-2     :     0.002141
      f+3     :     0.008516
      f-3     :     0.013536
  4 C s       :     2.770890  s :     2.770890
      pz      :     0.903369  p :     2.883252
      px      :     0.924546
      py      :     1.055337
      dz2     :     0.031043  d :     0.474842
      dxz     :     0.114339
      dyz     :     0.030746
      dx2y2   :     0.159811
      dxy     :     0.138903
      f0      :     0.004591  f :     0.062403
      f+1     :     0.006758
      f-1     :     0.004067
      f+2     :     0.012429
      f-2     :     0.003486
      f+3     :     0.011750
      f-3     :     0.019322
  5 C s       :     2.772590  s :     2.772590
      pz      :     0.854271  p :     2.921742
      px      :     1.078388
      py      :     0.989083
      dz2     :     0.026169  d :     0.394796
      dxz     :     0.064977
      dyz     :     0.032797
      dx2y2   :     0.107552
      dxy     :     0.163301
      f0      :     0.003064  f :     0.044281
      f+1     :     0.004549
      f-1     :     0.003454
      f+2     :     0.006922
      f-2     :     0.002616
      f+3     :     0.008387
      f-3     :     0.015290
  6 C s       :     2.766224  s :     2.766224
      pz      :     0.949390  p :     3.000532
      px      :     0.989106
      py      :     1.062035
      dz2     :     0.025875  d :     0.367410
      dxz     :     0.014830
      dyz     :     0.070325
      dx2y2   :     0.156972
      dxy     :     0.099408
      f0      :     0.003471  f :     0.044035
      f+1     :     0.003583
      f-1     :     0.004816
      f+2     :     0.001301
      f-2     :     0.007411
      f+3     :     0.008685
      f-3     :     0.014769
  7 H s       :     0.705443  s :     0.705443
      pz      :     0.028737  p :     0.099899
      px      :     0.023758
      py      :     0.047404
  8 H s       :     0.792619  s :     0.792619
      pz      :     0.013787  p :     0.059441
      px      :     0.016630
      py      :     0.029023
  9 H s       :     0.799996  s :     0.799996
      pz      :     0.013940  p :     0.059048
      px      :     0.015247
      py      :     0.029860
 10 H s       :     0.799044  s :     0.799044
      pz      :     0.012386  p :     0.057490
      px      :     0.017242
      py      :     0.027863
 11 H s       :     0.795542  s :     0.795542
      pz      :     0.015334  p :     0.059022
      px      :     0.033032
      py      :     0.010657


                      *****************************
                      * MAYER POPULATION ANALYSIS *
                      *****************************

  NA   - Mulliken gross atomic population
  ZA   - Total nuclear charge
  QA   - Mulliken gross atomic charge
  VA   - Mayer's total valence
  BVA  - Mayer's bonded valence
  FA   - Mayer's free valence

  ATOM       NA         ZA         QA         VA         BVA        FA
  0 O      8.3167     8.0000    -0.3167     2.2128     2.2128     0.0000
  1 N      7.1562     7.0000    -0.1562     3.2414     3.2414    -0.0000
  2 C      5.8199     6.0000     0.1801     4.3735     4.3735     0.0000
  3 C      6.1767     6.0000    -0.1767     3.7557     3.7557    -0.0000
  4 C      5.9893     6.0000     0.0107     3.9434     3.9434     0.0000
  5 C      6.0440     6.0000    -0.0440     3.8210     3.8210    -0.0000
  6 C      6.1497     6.0000    -0.1497     3.9437     3.9437     0.0000
  7 H      0.7960     1.0000     0.2040     0.9773     0.9773     0.0000
  8 H      0.8880     1.0000     0.1120     0.9833     0.9833     0.0000
  9 H      0.8746     1.0000     0.1254     0.9660     0.9660    -0.0000
 10 H      0.8937     1.0000     0.1063     0.9669     0.9669    -0.0000
 11 H      0.8953     1.0000     0.1047     0.9748     0.9748     0.0000

  Mayer bond orders larger than 0.100000
B(  0-O ,  2-C ) :   2.0775 B(  1-N ,  2-C ) :   1.0969 B(  1-N ,  4-C ) :   1.1834 
B(  1-N ,  7-H ) :   0.9052 B(  2-C ,  3-C ) :   1.0903 B(  3-C ,  5-C ) :   1.5913 
B(  3-C ,  8-H ) :   0.9745 B(  4-C ,  6-C ) :   1.6782 B(  4-C ,  9-H ) :   0.9346 
B(  5-C ,  6-C ) :   1.1681 B(  5-C , 10-H ) :   0.9413 B(  6-C , 11-H ) :   0.9564 


-------
TIMINGS
-------

Total SCF time: 0 days 0 hours 0 min 8 sec 

Total time                  ....       8.595 sec
Sum of individual times     ....       8.146 sec  ( 94.8%)

Fock matrix formation       ....       6.788 sec  ( 79.0%)
  Split-RI-J                ....       2.027 sec  ( 29.9% of F)
  XC integration            ....       4.618 sec  ( 68.0% of F)
    Basis function eval.    ....       1.270 sec  ( 27.5% of XC)
    Density eval.           ....       1.236 sec  ( 26.8% of XC)
    XC-Functional eval.     ....       0.092 sec  (  2.0% of XC)
    XC-Potential eval.      ....       1.172 sec  ( 25.4% of XC)
Diagonalization             ....       0.085 sec  (  1.0%)
Density matrix formation    ....       0.008 sec  (  0.1%)
Population analysis         ....       0.031 sec  (  0.4%)
Initial guess               ....       0.465 sec  (  5.4%)
Orbital Transformation      ....       0.000 sec  (  0.0%)
Orbital Orthonormalization  ....       0.000 sec  (  0.0%)
DIIS solution               ....       0.069 sec  (  0.8%)
SOSCF solution              ....       0.110 sec  (  1.3%)
Grid generation             ....       0.590 sec  (  6.9%)

Maximum memory used throughout the entire SCF-calculation: 24.5 MB


-------------------------------------------------------------------------------
                          DFT DISPERSION CORRECTION                            
                                                                               
                              DFTD3 V3.1  Rev 1                                
                          USING Becke-Johnson damping                          
-------------------------------------------------------------------------------
The BLYP functional is recognized
Active option DFTDOPT                   ...         4   

molecular C6(AA) [au] = 1712.191304 


            DFT-D V3
 parameters
 s6 scaling factor         :     1.0000 
 a1 scaling factor         :     0.4298 
 s8 scaling factor         :     2.6996 
 a2 scaling factor         :     4.2359 
 ad hoc parameters k1-k3   :    16.0000     1.3333    -4.0000 

 Edisp/kcal,au: -14.845340640089  -0.023657553663 
 E6   /kcal   :  -5.753902874 
 E8   /kcal   :  -9.091437766 
 % E8         :  61.241018221 

-------------------------   ----------------
Dispersion correction           -0.023657554
-------------------------   ----------------


-------------------------   --------------------
FINAL SINGLE POINT ENERGY      -323.566016241209
-------------------------   --------------------



           ************************************************************
           *        Program running with 6 parallel MPI-processes     *
           *              working on a common directory               *
           ************************************************************
------------------------------------------------------------------------------
                         ORCA SCF GRADIENT CALCULATION
------------------------------------------------------------------------------

Gradient of the Kohn-Sham DFT energy:
Kohn-Sham wavefunction type      ... RKS
Hartree-Fock exchange scaling    ...    0.000
Number of operators              ...    1
Number of atoms                  ...   12
Basis set dimensions             ...  247
Integral neglect threshold       ... 2.5e-11
Integral primitive cutoff        ... 2.5e-12
SHARK Integral package           ... ON

Nuc. rep. gradient       (SHARK) ... done (  0.1 sec)
HCore & Overlap gradient (SHARK) ... done (  0.2 sec)
RI-J gradient            (SHARK) ... done (  0.6 sec)
Exchange-correlation gradient    ... done
Dispersion correction            ... done

------------------
CARTESIAN GRADIENT
------------------

   1   O   :   -0.011729094    0.014617313    0.000025064
   2   N   :    0.008402429    0.010056691    0.000019861
   3   C   :   -0.008771799   -0.042021175   -0.000061627
   4   C   :   -0.012746389    0.020796440    0.000002359
   5   C   :   -0.004042570    0.016981674    0.000008375
   6   C   :    0.023327979    0.003908146    0.000035512
   7   C   :    0.012992482   -0.026024408   -0.000023238
   8   H   :   -0.006337528   -0.002433837   -0.000002002
   9   H   :   -0.005050104    0.001568940    0.000001125
  10   H   :    0.000295343    0.003350898    0.000001565
  11   H   :    0.002053980   -0.003731981   -0.000004047
  12   H   :    0.001605272    0.002931299   -0.000002946

Difference to translation invariance:
           :    0.0000000000    0.0000000000   -0.0000000000

Difference to rotation invariance:
           :   -0.0000000209    0.0000000974   -0.0000394105

Norm of the cartesian gradient     ...    0.0691781386
RMS gradient                       ...    0.0115296898
MAX gradient                       ...    0.0420211750

-------
TIMINGS
-------

Total SCF gradient time            ...        2.402 sec

One electron gradient       ....       0.156 sec  (  6.5%)
RI-J Coulomb gradient       ....       0.635 sec  ( 26.5%)
XC gradient                 ....       1.174 sec  ( 48.9%)

Maximum memory used throughout the entire SCFGRAD-calculation: 31.6 MB
------------------------------------------------------------------------------
                         ORCA GEOMETRY RELAXATION STEP
------------------------------------------------------------------------------

Reading the OPT-File                    .... done
Getting information on internals        .... done
Copying old internal coords+grads       .... done
Making the new internal coordinates     .... (new redundants).... done
Validating the new internal coordinates .... (new redundants).... done
Calculating the B-matrix                .... done
Calculating the G,G- and P matrices     .... done
Transforming gradient to internals      .... done
Projecting the internal gradient        .... done
Number of atoms                         ....  12
Number of internal coordinates          ....  54
Current Energy                          ....  -323.566016241 Eh
Current gradient norm                   ....     0.069178139 Eh/bohr
Maximum allowed component of the step   ....  0.300
Current trust radius                    ....  0.300
Evaluating the initial hessian          ....  (Almloef) done
Projecting the Hessian                  .... done
Forming the augmented Hessian           .... done
Diagonalizing the augmented Hessian     .... done
Last element of RFO vector              ....  0.994838835
Lowest eigenvalues of augmented Hessian:
 -0.005285791  0.018334861  0.020906909  0.024984019  0.027081551
Length of the computed step             ....  0.101994096
The final length of the internal step   ....  0.101994096
Converting the step to cartesian space:
 Initial RMS(Int)=    0.0138796385
Transforming coordinates:
 Iter   0:  RMS(Cart)=    0.0218810796 RMS(Int)=    2.2621385110
 Iter   1:  RMS(Cart)=    0.0002633771 RMS(Int)=    0.0001906979
 Iter   2:  RMS(Cart)=    0.0000064545 RMS(Int)=    0.0000037446
 Iter   3:  RMS(Cart)=    0.0000002260 RMS(Int)=    0.0000001813
 Iter   4:  RMS(Cart)=    0.0000000064 RMS(Int)=    0.0000000039
done
Storing new coordinates                 .... done

                                .--------------------.
          ----------------------|Geometry convergence|-------------------------
          Item                value                   Tolerance       Converged
          ---------------------------------------------------------------------
          RMS gradient        0.0073711513            0.0001000000      NO
          MAX gradient        0.0270436691            0.0003000000      NO
          RMS step            0.0138796385            0.0020000000      NO
          MAX step            0.0488612449            0.0040000000      NO
          ........................................................
          Max(Bonds)      0.0190      Max(Angles)    2.80
          Max(Dihed)        0.04      Max(Improp)    0.00
          ---------------------------------------------------------------------

The optimization has not yet converged - more geometry cycles are needed


    ---------------------------------------------------------------------------
                         Redundant Internal Coordinates
                            (Angstroem and degrees)

        Definition                    Value    dE/dq     Step     New-Value
    ----------------------------------------------------------------------------
     1. B(C   2,N   1)                1.3867 -0.013550  0.0122    1.3989   
     2. B(C   2,O   0)                1.2283 -0.011598  0.0060    1.2344   
     3. B(C   3,C   2)                1.4933  0.011135 -0.0140    1.4793   
     4. B(C   4,N   1)                1.3731 -0.009089  0.0080    1.3811   
     5. B(C   5,C   3)                1.3400 -0.027044  0.0190    1.3589   
     6. B(C   6,C   5)                1.4419  0.002584 -0.0022    1.4397   
     7. B(C   6,C   4)                1.3377 -0.022981  0.0162    1.3539   
     8. B(H   7,N   1)                1.0157 -0.000759  0.0009    1.0166   
     9. B(H   8,C   3)                1.0832 -0.001230  0.0017    1.0850   
    10. B(H   9,C   4)                1.0825 -0.003132  0.0044    1.0869   
    11. B(H  10,C   5)                1.0842 -0.004253  0.0060    1.0902   
    12. B(H  11,C   6)                1.0833 -0.001558  0.0022    1.0855   
    13. A(C   2,N   1,H   7)          118.93  0.009716   -1.46    117.47   
    14. A(C   4,N   1,H   7)          117.59 -0.003230    0.61    118.20   
    15. A(C   2,N   1,C   4)          123.48 -0.006486    0.85    124.33   
    16. A(N   1,C   2,C   3)          115.50  0.008255   -1.28    114.23   
    17. A(O   0,C   2,C   3)          120.34 -0.021215    2.80    123.14   
    18. A(O   0,C   2,N   1)          124.15  0.012960   -1.52    122.63   
    19. A(C   5,C   3,H   8)          122.04 -0.000350    0.19    122.23   
    20. A(C   2,C   3,H   8)          118.44  0.010181   -1.57    116.87   
    21. A(C   2,C   3,C   5)          119.52 -0.009830    1.38    120.90   
    22. A(C   6,C   4,H   9)          122.94 -0.001668    0.24    123.17   
    23. A(N   1,C   4,H   9)          116.25  0.000838   -0.16    116.09   
    24. A(N   1,C   4,C   6)          120.82  0.000830   -0.08    120.73   
    25. A(C   3,C   5,H  10)          120.78 -0.000424    0.03    120.81   
    26. A(C   3,C   5,C   6)          121.19  0.001351   -0.14    121.05   
    27. A(C   6,C   5,H  10)          118.03 -0.000927    0.11    118.14   
    28. A(C   5,C   6,H  11)          118.93 -0.005966    0.86    119.79   
    29. A(C   4,C   6,H  11)          121.58  0.000085   -0.13    121.45   
    30. A(C   4,C   6,C   5)          119.49  0.005880   -0.73    118.76   
    31. D(C   3,C   2,N   1,C   4)      0.02  0.000013   -0.03     -0.00   
    32. D(C   3,C   2,N   1,H   7)   -179.99  0.000010   -0.02   -180.01   
    33. D(O   0,C   2,N   1,H   7)     -0.03 -0.000020    0.04      0.01   
    34. D(O   0,C   2,N   1,C   4)    179.99 -0.000017    0.03    180.02   
    35. D(H   8,C   3,C   2,O   0)      0.01  0.000008   -0.03     -0.02   
    36. D(C   5,C   3,C   2,O   0)   -179.97  0.000010   -0.04   -180.00   
    37. D(C   5,C   3,C   2,N   1)     -0.00 -0.000007    0.02      0.01   
    38. D(H   8,C   3,C   2,N   1)    179.98 -0.000009    0.02    180.00   
    39. D(H   9,C   4,N   1,H   7)     -0.00 -0.000002    0.00      0.00   
    40. D(H   9,C   4,N   1,C   2)    179.98 -0.000004    0.01    180.00   
    41. D(C   6,C   4,N   1,H   7)    180.00 -0.000004    0.00    180.00   
    42. D(C   6,C   4,N   1,C   2)     -0.02 -0.000005    0.01     -0.00   
    43. D(H  10,C   5,C   3,C   2)    179.99  0.000005   -0.00    179.99   
    44. D(C   6,C   5,C   3,H   8)    179.99 -0.000005    0.00    180.00   
    45. D(C   6,C   5,C   3,C   2)     -0.02 -0.000006    0.01     -0.01   
    46. D(H  10,C   5,C   3,H   8)      0.01  0.000006   -0.01      0.00   
    47. D(H  11,C   6,C   5,H  10)      0.01 -0.000001    0.00      0.01   
    48. D(C   4,C   6,C   5,H  10)   -179.98  0.000006   -0.01   -180.00   
    49. D(C   4,C   6,C   5,C   3)      0.03  0.000017   -0.03      0.01   
    50. D(H  11,C   6,C   4,H   9)     -0.00 -0.000000    0.00     -0.00   
    51. D(H  11,C   6,C   4,N   1)    180.00  0.000001    0.00    180.00   
    52. D(H  11,C   6,C   5,C   3)   -179.98  0.000009   -0.01   -179.99   
    53. D(C   5,C   6,C   4,H   9)    179.99 -0.000009    0.01    180.00   
    54. D(C   5,C   6,C   4,N   1)     -0.01 -0.000007    0.02      0.00   
    ----------------------------------------------------------------------------

         *************************************************************
         *                GEOMETRY OPTIMIZATION CYCLE   2            *
         *************************************************************
---------------------------------
CARTESIAN COORDINATES (ANGSTROEM)
---------------------------------
  O      2.303882   -0.048783   -0.000031
  N      0.287421   -1.178666    0.000096
  C      1.069865   -0.019074    0.000146
  C      0.291116    1.238599    0.000001
  C     -1.093594   -1.186214   -0.000005
  C     -1.067693    1.218111    0.000095
  C     -1.791772   -0.026227    0.000014
  H      0.772809   -2.071937    0.000054
  H      0.855864    2.165019    0.000001
  H     -1.566329   -2.164923   -0.000086
  H     -1.640082    2.146011    0.000175
  H     -2.877288   -0.018518   -0.000060

----------------------------
CARTESIAN COORDINATES (A.U.)
----------------------------
  NO LB      ZA    FRAG     MASS         X           Y           Z
   0 O     8.0000    0    15.999    4.353706   -0.092187   -0.000058
   1 N     7.0000    0    14.007    0.543147   -2.227355    0.000181
   2 C     6.0000    0    12.011    2.021753   -0.036044    0.000276
   3 C     6.0000    0    12.011    0.550129    2.340614    0.000003
   4 C     6.0000    0    12.011   -2.066593   -2.241619   -0.000009
   5 C     6.0000    0    12.011   -2.017647    2.301897    0.000179
   6 C     6.0000    0    12.011   -3.385958   -0.049562    0.000026
   7 H     1.0000    0     1.008    1.460398   -3.915394    0.000103
   8 H     1.0000    0     1.008    1.617349    4.091292    0.000002
   9 H     1.0000    0     1.008   -2.959934   -4.091111   -0.000162
  10 H     1.0000    0     1.008   -3.099306    4.055373    0.000330
  11 H     1.0000    0     1.008   -5.437286   -0.034993   -0.000114

--------------------------------
INTERNAL COORDINATES (ANGSTROEM)
--------------------------------
 O      0   0   0     0.000000000000     0.00000000     0.00000000
 N      1   0   0     2.311438726479     0.00000000     0.00000000
 C      1   2   0     1.234373980324    30.64234587     0.00000000
 C      3   1   2     1.479254065675   123.14488980   180.01972059
 C      2   1   3     1.381035494477   151.04996234     0.02508205
 C      4   3   1     1.358963354862   120.90190173   179.99448458
 C      5   2   1     1.353890865300   120.72991835     0.00000000
 H      2   1   3     1.016629750536    90.74430026   180.00841227
 H      4   3   1     1.084985442536   116.86763807     0.00000000
 H      5   2   1     1.086899271762   116.09459557   179.98327114
 H      6   4   3     1.090241722732   120.80516569   179.98858922
 H      7   5   2     1.085543635831   121.44999303   180.00027684

---------------------------
INTERNAL COORDINATES (A.U.)
---------------------------
 O      0   0   0     0.000000000000     0.00000000     0.00000000
 N      1   0   0     4.367986168385     0.00000000     0.00000000
 C      1   2   0     2.332628769651    30.64234587     0.00000000
 C      3   1   2     2.795385066616   123.14488980   180.01972059
 C      2   1   3     2.609778865787   151.04996234     0.02508205
 C      4   3   1     2.568068566725   120.90190173   179.99448458
 C      5   2   1     2.558482950635   120.72991835     0.00000000
 H      2   1   3     1.921151808110    90.74430026   180.00841227
 H      4   3   1     2.050325345685   116.86763807     0.00000000
 H      5   2   1     2.053941958788   116.09459557   179.98327114
 H      6   4   3     2.060258275738   120.80516569   179.98858922
 H      7   5   2     2.051380178142   121.44999303   180.00027684



           ************************************************************
           *        Program running with 6 parallel MPI-processes     *
           *              working on a common directory               *
           ************************************************************
------------------------------------------------------------------------------
                   ___                                                        
                  /   \      - P O W E R E D   B Y -                         
                 /     \                                                     
                 |  |  |   _    _      __       _____    __    __             
                 |  |  |  | |  | |    /  \     |  _  \  |  |  /  |          
                  \  \/   | |  | |   /    \    | | | |  |  | /  /          
                 / \  \   | |__| |  /  /\  \   | |_| |  |  |/  /          
                |  |  |   |  __  | /  /__\  \  |    /   |      \           
                |  |  |   | |  | | |   __   |  |    \   |  |\   \          
                \     /   | |  | | |  |  |  |  | |\  \  |  | \   \       
                 \___/    |_|  |_| |__|  |__|  |_| \__\ |__|  \__/        
                                                                              
                      - O R C A' S   B I G   F R I E N D -                    
                                      &                                       
                       - I N T E G R A L  F E E D E R -                       
                                                                              
 v1 FN, 2020, v2 2021                                                         
------------------------------------------------------------------------------


Reading SHARK input file hydro2.SHARKINP.tmp ... ok
----------------------
SHARK INTEGRAL PACKAGE
----------------------

Number of atoms                             ...     12
Number of basis functions                   ...    247
Number of shells                            ...     97
Maximum angular momentum                    ...      3
Integral batch strategy                     ... SHARK/LIBINT Hybrid
RI-J (if used) integral strategy            ... SPLIT-RIJ (Revised 2003 algorithm where possible)
Printlevel                                  ...      1
Contraction scheme used                     ... SEGMENTED contraction
Coulomb Range Separation                    ... NOT USED
Exchange Range Separation                   ... NOT USED
Finite Nucleus Model                        ... NOT USED
Auxiliary Coulomb fitting basis             ... AVAILABLE
   # of basis functions in Aux-J            ...    398
   # of shells in Aux-J                     ...    130
   Maximum angular momentum in Aux-J        ...      4
Auxiliary J/K fitting basis                 ... NOT available
Auxiliary Correlation fitting basis         ... NOT available
Auxiliary 'external' fitting basis          ... NOT available
Integral threshold                          ...     2.500000e-11
Primitive cut-off                           ...     2.500000e-12
Primitive pair pre-selection threshold      ...     2.500000e-12

Calculating pre-screening integrals         ... done (  0.0 sec) Dimension = 97
Organizing shell pair data                  ... done (  0.1 sec)
Shell pair information
Total number of shell pairs                 ...      4753
Shell pairs after pre-screening             ...      4503
Total number of primitive shell pairs       ...     14704
Primitive shell pairs kept                  ...     10755
          la=0 lb=0:   1151 shell pairs
          la=1 lb=0:   1238 shell pairs
          la=1 lb=1:    345 shell pairs
          la=2 lb=0:    668 shell pairs
          la=2 lb=1:    358 shell pairs
          la=2 lb=2:    102 shell pairs
          la=3 lb=0:    337 shell pairs
          la=3 lb=1:    179 shell pairs
          la=3 lb=2:     97 shell pairs
          la=3 lb=3:     28 shell pairs

Calculating one electron integrals          ... done (  0.0 sec)
[...]
     17       0.068014   0.113754   0.036155  -0.000044   0.074592   0.012065
     18       0.000015   0.000033   0.000007  -0.067568   0.000119  -0.000013
     19      -0.000014  -0.000034  -0.000012  -0.004398  -0.000007  -0.000003
     20      -0.120621  -0.021629  -0.106757  -0.000023  -0.054004   0.087500
     21      -0.000018  -0.000053  -0.000017   0.134642  -0.000276   0.000022
     22       0.000075   0.000196   0.000121   0.317111  -0.000127   0.000002
     23      -0.954142   0.344078   0.262017  -0.000240  -0.020019  -0.146195
     24       0.000041   0.000123   0.000077   0.195279  -0.000102   0.000006
     25       0.000041   0.000073  -0.000017  -0.373451   0.000472  -0.000027
     26      -0.149588  -0.514427  -0.225045  -0.001176  -0.752015   0.079121
     27      -0.000012   0.000019   0.000058   0.437633  -0.000430   0.000018
     28      -0.000046  -0.000099  -0.000034   0.046498  -0.000076  -0.000018
     29       0.084989  -0.178929   0.461575   0.000514   0.305013   0.808377
     30       0.000034   0.000118   0.000094   0.394052  -0.000337   0.000016
     31      -0.000069  -0.000169  -0.000086  -0.027232  -0.000200   0.000027
     32       0.144669  -0.269305   0.146012  -0.000529  -0.475205  -0.012301
     33       0.000028   0.000083   0.000023  -0.061486   0.000183  -0.000015
     34       0.000047   0.000117   0.000022  -0.031771   0.000105  -0.000004
     35      -0.062915  -0.675291   0.755923   0.000471   0.235821  -0.541919
                 18         19         20         21         22         23    
      0      -0.000092  -0.096323  -0.018095   0.019282   0.021424   0.007547
      1       0.000003  -0.013437   0.007710   0.024450   0.011894   0.018498
      2      -0.000034  -0.000012   0.000010  -0.000009  -0.000007  -0.000004
      3      -0.000030   0.083949   0.118042  -0.119363   0.085405   0.004182
      4      -0.000261  -0.243647  -0.040974   0.042283   0.045973   0.048141
      5      -0.008655   0.000038  -0.000018   0.000010   0.000009   0.000005
      6       0.000035  -0.002289  -0.024404  -0.001435  -0.028125  -0.015382
      7       0.000019   0.089575  -0.076206  -0.102755  -0.165505  -0.170747
      8       0.006427  -0.000010  -0.000007   0.000002  -0.000002  -0.000003
      9      -0.000002   0.049869   0.139120   0.064048  -0.019019  -0.054931
     10       0.000289   0.166657   0.141826   0.084543   0.081062   0.060548
     11       0.089361  -0.000422   0.000183  -0.000083  -0.000055  -0.000030
     12       0.000138   0.106871  -0.015017   0.061874  -0.054017  -0.031654
     13       0.000361   0.240708  -0.063797   0.111740   0.015297   0.006501
     14       0.006286  -0.000016   0.000005   0.000009   0.000005   0.000004
     15       0.000080   0.084266   0.029335  -0.026003  -0.008158   0.079648
     16      -0.000499  -0.266791   0.161617  -0.005602  -0.048911   0.026548
     17      -0.129745   0.000518  -0.000167   0.000035   0.000014   0.000005
     18       0.000056  -0.150204  -0.320461   0.048767  -0.001931   0.027856
     19       0.000100   0.053138  -0.101520  -0.092865   0.026293  -0.036824
     20       0.028117  -0.000095   0.000016   0.000003   0.000005   0.000002
     21      -0.000499  -0.102537   0.207173  -0.501797   0.088167  -0.109815
     22      -0.000453  -0.357387   0.007281  -0.176213   0.044647  -0.016459
     23       0.011509  -0.000051   0.000022  -0.000007   0.000001   0.000000
     24      -0.000659  -0.364926   0.508339   0.317545   0.113561  -0.706214
     25       0.000734   0.414294  -0.064714  -0.059388   0.004223   0.447491
     26      -0.551900   0.002834  -0.001289   0.000787   0.000571   0.000346
     27      -0.000476  -0.162901   0.339921   0.090046   0.163615   0.164029
     28       0.000586   0.370915  -0.242742   0.108879  -0.083200  -0.081451
     29       0.002040  -0.000030   0.000007  -0.000027  -0.000016  -0.000010
     30      -0.000257   0.084689   0.209496  -0.369577  -0.556410   0.377040
     31      -0.000725  -0.269598   0.284215  -0.203348  -0.368314   0.198938
     32       0.804282  -0.003361   0.001165  -0.000362  -0.000219  -0.000094
     33       0.000126  -0.146721  -0.337035   0.061805  -0.010151   0.031094
     34       0.000213   0.065175  -0.274861  -0.586708   0.668466  -0.152995
     35      -0.150436   0.000569  -0.000170   0.000023   0.000030   0.000008
                 24         25         26         27         28         29    
      0       0.013109  -0.000076  -0.105964   0.002385  -0.089204  -0.097776
      1       0.001488   0.011570  -0.010457   0.019037   0.021813   0.006788
      2      -0.000001   0.000002   0.000004  -0.000001  -0.000011  -0.000001
      3       0.073762  -0.063084   0.138245  -0.106807   0.109435   0.017599
      4       0.036623  -0.048354   0.048083   0.016051   0.104405  -0.065532
      5       0.000003  -0.000003  -0.000004   0.000001   0.000011  -0.000002
      6      -0.017978  -0.006974   0.079542  -0.008807   0.053291   0.127106
      7      -0.047461  -0.002219   0.072641  -0.052757  -0.110930   0.027552
      8      -0.000001   0.000001   0.000005  -0.000001  -0.000005   0.000003
      9       0.011516   0.112943   0.064452   0.132020   0.230134   0.174068
     10       0.012460  -0.067983  -0.110184  -0.036540   0.057459  -0.032152
     11      -0.000008   0.000009   0.000024  -0.000005  -0.000034   0.000005
     12      -0.096770   0.001344  -0.071170   0.198770   0.022127  -0.223207
     13       0.032866  -0.009024  -0.027066  -0.027776  -0.191702   0.229825
     14       0.000001  -0.000002  -0.000007   0.000002   0.000007   0.000000
     15       0.010910  -0.003293   0.067204  -0.070457  -0.324828  -0.222922
     16      -0.020332   0.027215   0.120352   0.077163  -0.168966  -0.000675
     17       0.000000   0.000001   0.000007   0.000000  -0.000016  -0.000001
     18       0.012281  -0.023820  -0.023682  -0.060494   0.033423   0.147973
     19      -0.029412   0.120018  -0.060414  -0.119848   0.270145  -0.222223
     20       0.000001   0.000000  -0.000004  -0.000002   0.000009  -0.000003
     21       0.420098   0.431923  -0.569822   0.125106  -0.460955   0.360828
     22       0.238692   0.240089  -0.369043   0.161098  -0.241279   0.133127
     23       0.000005   0.000002  -0.000014   0.000002   0.000006   0.000003
     24       0.037233  -0.362482  -0.342197  -0.293430   0.034839  -0.027436
     25      -0.002106   0.213575   0.127807   0.226211   0.201051   0.115931
     26       0.000090  -0.000124  -0.000348   0.000071   0.000545  -0.000057
     27      -0.687018   0.330614  -0.191546  -0.507464  -0.264746   0.514465
     28       0.317716  -0.169445   0.019420   0.313619  -0.078018  -0.084470
     29      -0.000003   0.000001   0.000000   0.000001   0.000003   0.000008
     30      -0.065795  -0.455335  -0.487900  -0.078048   0.384861   0.254646
     31      -0.067009  -0.234400  -0.197469   0.092809   0.256748   0.294459
     32      -0.000028   0.000020   0.000055  -0.000011  -0.000067   0.000022
     33       0.016172  -0.022561  -0.034038  -0.076102   0.032597   0.168905
     34      -0.401650  -0.371892  -0.027231   0.584696  -0.219719   0.316111
     35      -0.000006  -0.000004  -0.000001   0.000010  -0.000003   0.000003
                 30         31         32         33         34         35    
      0      -0.317522  -0.000229  -0.000282  -0.000671  -0.000233   0.000010
      1       0.039573   0.000050  -0.000164   0.000218   0.000046  -0.000086
      2      -0.000017   0.000000   0.000003   0.000001  -0.000001  -0.000002
      3      -0.129610  -0.000181  -0.000122  -0.000395   0.001040   0.037645
      4       0.015448  -0.000128   0.001187  -0.000303   0.000489  -0.062567
      5       0.000010  -0.000000  -0.000002  -0.000001   0.000001   0.000001
      6       0.577320   0.000306   0.000926   0.002421   0.000769   0.000920
      7      -0.153232  -0.000298   0.001351  -0.001500  -0.000122   0.000023
      8      -0.000002   0.000000   0.000002   0.000001  -0.000001  -0.000002
      9      -0.197539  -0.005965  -0.000940   0.044696   0.006400   0.000052
     10       0.075218  -0.014069  -0.000617   0.072092   0.008941   0.000162
     11      -0.000038  -0.000000   0.000007   0.000005  -0.000001  -0.000006
     12       0.094782  -0.000041  -0.033973   0.000369  -0.009391  -0.001949
     13      -0.054851  -0.001309  -0.075384   0.002434  -0.027115  -0.001723
     14       0.000010  -0.000000  -0.000005  -0.000001   0.000000   0.000003
     15       0.097591  -0.042593   0.002958  -0.011571  -0.005049  -0.000669
     16      -0.000262   0.071895  -0.004074   0.012879   0.011971  -0.000385
     17      -0.000014   0.000001   0.000005   0.000002  -0.000001  -0.000004
     18      -0.042317   0.009012   0.023685   0.011984  -0.082673  -0.000732
     19       0.059776  -0.001472   0.003258  -0.001462   0.001091   0.001540
     20       0.000004   0.000000   0.000000   0.000000  -0.000001   0.000000
     21       0.439847  -0.000173   0.005325   0.000882   0.002060  -0.504600
     22       0.346043  -0.000091  -0.018831   0.000317  -0.007694   0.860045
     23       0.000024  -0.000000  -0.000006  -0.000002   0.000001   0.000014
     24       0.276690   0.098484   0.005430  -0.495308  -0.061971   0.000245
     25      -0.191534   0.169725   0.008024  -0.833746  -0.102151  -0.000858
     26       0.000613   0.000004  -0.000137  -0.000076   0.000030   0.000114
     27      -0.100031   0.006408   0.406945  -0.009813   0.123450   0.009101
     28       0.024956   0.014437   0.857498  -0.021665   0.269835   0.016554
     29       0.000031   0.000001   0.000014  -0.000002   0.000006   0.000003
     30      -0.043188   0.488538  -0.026781   0.091980   0.063511  -0.000073
     31      -0.084036  -0.837315   0.045421  -0.150295  -0.115249   0.000029
     32      -0.000067  -0.000014   0.000013   0.000002  -0.000005  -0.000010
     33      -0.045948  -0.119052  -0.297237  -0.142360   0.933939   0.000383
     34      -0.064166   0.001875  -0.006768  -0.000055   0.010093  -0.000425
     35      -0.000012  -0.000001  -0.000002  -0.000001   0.000008  -0.000001


-----------
IR SPECTRUM
-----------

 Mode   freq       eps      Int      T**2         TX        TY        TZ
       cm**-1   L/(mol*cm) km/mol    a.u.
----------------------------------------------------------------------------
  6:    161.73   0.000460    2.33  0.000888  ( 0.000056 -0.000021  0.029803)
  7:    379.43   0.000281    1.42  0.000231  (-0.000037  0.000017 -0.015213)
  8:    443.66   0.001092    5.52  0.000768  (-0.008645  0.026335  0.000025)
  9:    471.24   0.007408   37.44  0.004906  (-0.000056  0.000020 -0.070040)
 10:    533.57   0.001057    5.34  0.000618  ( 0.024421  0.004674 -0.000015)
 11:    600.82   0.000283    1.43  0.000147  (-0.008930 -0.008186 -0.000002)
 12:    683.76   0.007506   37.93  0.003426  (-0.000011  0.000009 -0.058530)
 13:    711.89   0.000881    4.45  0.000386  (-0.000048  0.000025 -0.019655)
 14:    739.40   0.012410   62.71  0.005237  (-0.000019  0.000008  0.072370)
 15:    784.71   0.001872    9.46  0.000744  (-0.024120 -0.012754 -0.000052)
 16:    827.22   0.002938   14.85  0.001108  (-0.000015  0.000051 -0.033292)
 17:    897.31   0.000005    0.02  0.000002  ( 0.000019 -0.000001 -0.001310)
 18:    965.38   0.000000    0.00  0.000000  ( 0.000018  0.000013 -0.000243)
 19:    976.08   0.002182   11.03  0.000697  ( 0.026407 -0.000378  0.000010)
 20:    993.27   0.001052    5.32  0.000331  ( 0.017879  0.003308 -0.000011)
 21:   1078.36   0.003595   18.17  0.001040  (-0.000656 -0.032248  0.000009)
 22:   1126.24   0.004009   20.26  0.001111  (-0.032410 -0.007778  0.000010)
 23:   1186.30   0.000056    0.28  0.000015  ( 0.003749  0.000767  0.000004)
 24:   1201.36   0.004915   24.84  0.001277  (-0.028628  0.021380 -0.000001)
 25:   1351.15   0.000482    2.44  0.000111  (-0.003908 -0.009804 -0.000004)
 26:   1410.19   0.001058    5.35  0.000234  ( 0.005865  0.014130 -0.000005)
 27:   1447.52   0.000197    0.99  0.000042  ( 0.003789 -0.005299  0.000002)
 28:   1522.80   0.007726   39.04  0.001583  (-0.017236 -0.035864  0.000005)
 29:   1599.07   0.007898   39.91  0.001541  ( 0.022602  0.032101  0.000001)
 30:   1676.98   0.103160  521.33  0.019197  ( 0.138141 -0.010665  0.000006)
 31:   3092.88   0.002764   13.97  0.000279  (-0.007921  0.014702  0.000000)
 32:   3123.51   0.000684    3.45  0.000068  (-0.002916 -0.007732 -0.000003)
 33:   3136.14   0.000951    4.80  0.000095  ( 0.003437  0.009098 -0.000001)
 34:   3151.78   0.000757    3.83  0.000075  (-0.008343 -0.002319  0.000000)
 35:   3475.32   0.007841   39.63  0.000704  (-0.010512  0.024364  0.000003)

* The epsilon (eps) is given for a Dirac delta lineshape.
** The dipole moment derivative (T) already includes vibrational overlap.

The first frequency considered to be a vibration is 6
The total number of vibrations considered is 30


--------------------------
THERMOCHEMISTRY AT 298.15K
--------------------------

Temperature         ... 298.15 K
Pressure            ... 1.00 atm
Total Mass          ... 95.10 AMU

Throughout the following assumptions are being made:
  (1) The electronic state is orbitally nondegenerate
  (2) There are no thermally accessible electronically excited states
  (3) Hindered rotations indicated by low frequency modes are not
      treated as such but are treated as vibrations and this may
      cause some error
  (4) All equations used are the standard statistical mechanics
      equations for an ideal gas
  (5) All vibrations are strictly harmonic

freq.     161.73  E(vib)   ...       0.39 
freq.     379.43  E(vib)   ...       0.21 
freq.     443.66  E(vib)   ...       0.17 
freq.     471.24  E(vib)   ...       0.15 
freq.     533.57  E(vib)   ...       0.13 
freq.     600.82  E(vib)   ...       0.10 
freq.     683.76  E(vib)   ...       0.07 
freq.     711.89  E(vib)   ...       0.07 
freq.     739.40  E(vib)   ...       0.06 
freq.     784.71  E(vib)   ...       0.05 
freq.     827.22  E(vib)   ...       0.04 
freq.     897.31  E(vib)   ...       0.03 
freq.     965.38  E(vib)   ...       0.03 
freq.     976.08  E(vib)   ...       0.03 
freq.     993.27  E(vib)   ...       0.02 
freq.    1078.36  E(vib)   ...       0.02 
freq.    1126.24  E(vib)   ...       0.01 
freq.    1186.30  E(vib)   ...       0.01 
freq.    1201.36  E(vib)   ...       0.01 
freq.    1351.15  E(vib)   ...       0.01 
freq.    1410.19  E(vib)   ...       0.00 
freq.    1447.52  E(vib)   ...       0.00 
freq.    1522.80  E(vib)   ...       0.00 
freq.    1599.07  E(vib)   ...       0.00 
freq.    1676.98  E(vib)   ...       0.00 
freq.    3092.88  E(vib)   ...       0.00 
freq.    3123.51  E(vib)   ...       0.00 
freq.    3136.14  E(vib)   ...       0.00 
freq.    3151.78  E(vib)   ...       0.00 
freq.    3475.32  E(vib)   ...       0.00 

------------
INNER ENERGY
------------

The inner energy is: U= E(el) + E(ZPE) + E(vib) + E(rot) + E(trans)
    E(el)   - is the total energy from the electronic structure calculation
              = E(kin-el) + E(nuc-el) + E(el-el) + E(nuc-nuc)
    E(ZPE)  - the the zero temperature vibrational energy from the frequency calculation
    E(vib)  - the the finite temperature correction to E(ZPE) due to population
              of excited vibrational states
    E(rot)  - is the rotational thermal energy
    E(trans)- is the translational thermal energy

Summary of contributions to the inner energy U:
Electronic energy                ...   -323.57160541 Eh
Zero point energy                ...      0.09055505 Eh      56.82 kcal/mol
Thermal vibrational correction   ...      0.00259894 Eh       1.63 kcal/mol
Thermal rotational correction    ...      0.00141627 Eh       0.89 kcal/mol
Thermal translational correction ...      0.00141627 Eh       0.89 kcal/mol
-----------------------------------------------------------------------
Total thermal energy                   -323.47561887 Eh


Summary of corrections to the electronic energy:
(perhaps to be used in another calculation)
Total thermal correction                  0.00543149 Eh       3.41 kcal/mol
Non-thermal (ZPE) correction              0.09055505 Eh      56.82 kcal/mol
-----------------------------------------------------------------------
Total correction                          0.09598654 Eh      60.23 kcal/mol


--------
ENTHALPY
--------

The enthalpy is H = U + kB*T
                kB is Boltzmann's constant
Total free energy                 ...   -323.47561887 Eh 
Thermal Enthalpy correction       ...      0.00094421 Eh       0.59 kcal/mol
-----------------------------------------------------------------------
Total Enthalpy                    ...   -323.47467466 Eh


Note: Rotational entropy computed according to Herzberg 
Infrared and Raman Spectra, Chapter V,1, Van Nostrand Reinhold, 1945 
Point Group:  Cs, Symmetry Number:   1  
Rotational constants in cm-1:     0.186906     0.091790     0.061559 

Vibrational entropy computed according to the QRRHO of S. Grimme
Chem.Eur.J. 2012 18 9955


-------
ENTROPY
-------

The entropy contributions are T*S = T*(S(el)+S(vib)+S(rot)+S(trans))
     S(el)   - electronic entropy
     S(vib)  - vibrational entropy
     S(rot)  - rotational entropy
     S(trans)- translational entropy
The entropies will be listed as multiplied by the temperature to get
units of energy

Electronic entropy                ...      0.00000000 Eh      0.00 kcal/mol
Vibrational entropy               ...      0.00387621 Eh      2.43 kcal/mol
Rotational entropy                ...      0.01274612 Eh      8.00 kcal/mol
Translational entropy             ...      0.01880010 Eh     11.80 kcal/mol
-----------------------------------------------------------------------
Final entropy term                ...      0.03542244 Eh     22.23 kcal/mol

In case the symmetry of your molecule has not been determined correctly
or in case you have a reason to use a different symmetry number we print 
out the resulting rotational entropy values for sn=1,12 :
 --------------------------------------------------------
|  sn= 1 | S(rot)=       0.01274612 Eh      8.00 kcal/mol|
|  sn= 2 | S(rot)=       0.01209167 Eh      7.59 kcal/mol|
|  sn= 3 | S(rot)=       0.01170883 Eh      7.35 kcal/mol|
|  sn= 4 | S(rot)=       0.01143721 Eh      7.18 kcal/mol|
|  sn= 5 | S(rot)=       0.01122652 Eh      7.04 kcal/mol|
|  sn= 6 | S(rot)=       0.01105438 Eh      6.94 kcal/mol|
|  sn= 7 | S(rot)=       0.01090883 Eh      6.85 kcal/mol|
|  sn= 8 | S(rot)=       0.01078275 Eh      6.77 kcal/mol|
|  sn= 9 | S(rot)=       0.01067155 Eh      6.70 kcal/mol|
|  sn=10 | S(rot)=       0.01057207 Eh      6.63 kcal/mol|
|  sn=11 | S(rot)=       0.01048208 Eh      6.58 kcal/mol|
|  sn=12 | S(rot)=       0.01039992 Eh      6.53 kcal/mol|
 --------------------------------------------------------


-------------------
GIBBS FREE ENERGY
-------------------

The Gibbs free energy is G = H - T*S

Total enthalpy                    ...   -323.47467466 Eh 
Total entropy correction          ...     -0.03542244 Eh    -22.23 kcal/mol
-----------------------------------------------------------------------
Final Gibbs free energy         ...   -323.51009710 Eh

For completeness - the Gibbs free energy minus the electronic energy
G-E(el)                           ...      0.06150831 Eh     38.60 kcal/mol



Timings for individual modules:

Sum of individual times         ...      475.917 sec (=   7.932 min)
GTO integral calculation        ...        7.476 sec (=   0.125 min)   1.6 %
SCF iterations                  ...       55.170 sec (=   0.919 min)  11.6 %
SCF Gradient evaluation         ...       19.650 sec (=   0.327 min)   4.1 %
Geometry relaxation             ...        0.294 sec (=   0.005 min)   0.1 %
Numerical frequency calculation ...      393.327 sec (=   6.555 min)  82.6 %
                             ****ORCA TERMINATED NORMALLY****
TOTAL RUN TIME: 0 days 0 hours 7 minutes 55 seconds 485 msec
