
                                 *****************
                                 * O   R   C   A *
                                 *****************

                                            #,                                       
                                            ###                                      
                                            ####                                     
                                            #####                                    
                                            ######                                   
                                           ########,                                 
                                     ,,################,,,,,                         
                               ,,#################################,,                 
                          ,,##########################################,,             
                       ,#########################################, ''#####,          
                    ,#############################################,,   '####,        
                  ,##################################################,,,,####,       
                ,###########''''           ''''###############################       
              ,#####''   ,,,,##########,,,,          '''####'''          '####       
            ,##' ,,,,###########################,,,                        '##       
           ' ,,###''''                  '''############,,,                           
         ,,##''                                '''############,,,,        ,,,,,,###''
      ,#''                                            '''#######################'''  
     '                                                          ''''####''''         
             ,#######,   #######,   ,#######,      ##                                
            ,#'     '#,  ##    ##  ,#'     '#,    #''#        ######   ,####,        
            ##       ##  ##   ,#'  ##            #'  '#       #        #'  '#        
            ##       ##  #######   ##           ,######,      #####,   #    #        
            '#,     ,#'  ##    ##  '#,     ,#' ,#      #,         ##   #,  ,#        
             '#######'   ##     ##  '#######'  #'      '#     #####' # '####'        



                  #######################################################
                  #                        -***-                        #
                  #          Department of theory and spectroscopy      #
                  #    Directorship and core code : Frank Neese         #
                  #        Max Planck Institute fuer Kohlenforschung    #
                  #                Kaiser Wilhelm Platz 1               #
                  #                 D-45470 Muelheim/Ruhr               #
                  #                      Germany                        #
                  #                                                     #
                  #                  All rights reserved                #
                  #                        -***-                        #
                  #######################################################


                         Program Version 5.0.3 -  RELEASE  -


 With contributions from (in alphabetic order):
   Daniel Aravena         : Magnetic Suceptibility
   Michael Atanasov       : Ab Initio Ligand Field Theory (pilot matlab implementation)
   Alexander A. Auer      : GIAO ZORA, VPT2 properties, NMR spectrum
   Ute Becker             : Parallelization
   Giovanni Bistoni       : ED, misc. LED, open-shell LED, HFLD
   Martin Brehm           : Molecular dynamics
   Dmytro Bykov           : SCF Hessian
   Vijay G. Chilkuri      : MRCI spin determinant printing, contributions to CSF-ICE
   Dipayan Datta          : RHF DLPNO-CCSD density
   Achintya Kumar Dutta   : EOM-CC, STEOM-CC
   Dmitry Ganyushin       : Spin-Orbit,Spin-Spin,Magnetic field MRCI
   Miquel Garcia          : C-PCM and meta-GGA Hessian, CC/C-PCM, Gaussian charge scheme
   Yang Guo               : DLPNO-NEVPT2, F12-NEVPT2, CIM, IAO-localization
   Andreas Hansen         : Spin unrestricted coupled pair/coupled cluster methods
   Benjamin Helmich-Paris : MC-RPA, TRAH-SCF, COSX integrals
   Lee Huntington         : MR-EOM, pCC
   Robert Izsak           : Overlap fitted RIJCOSX, COSX-SCS-MP3, EOM
   Marcus Kettner         : VPT2
   Christian Kollmar      : KDIIS, OOCD, Brueckner-CCSD(T), CCSD density, CASPT2, CASPT2-K
   Simone Kossmann        : Meta GGA functionals, TD-DFT gradient, OOMP2, MP2 Hessian
   Martin Krupicka        : Initial AUTO-CI
   Lucas Lang             : DCDCAS
   Marvin Lechner         : AUTO-CI (C++ implementation), FIC-MRCC
   Dagmar Lenk            : GEPOL surface, SMD
   Dimitrios Liakos       : Extrapolation schemes; Compound Job, initial MDCI parallelization
   Dimitrios Manganas     : Further ROCIS development; embedding schemes
   Dimitrios Pantazis     : SARC Basis sets
   Anastasios Papadopoulos: AUTO-CI, single reference methods and gradients
   Taras Petrenko         : DFT Hessian,TD-DFT gradient, ASA, ECA, R-Raman, ABS, FL, XAS/XES, NRVS
   Peter Pinski           : DLPNO-MP2, DLPNO-MP2 Gradient
   Christoph Reimann      : Effective Core Potentials
   Marius Retegan         : Local ZFS, SOC
   Christoph Riplinger    : Optimizer, TS searches, QM/MM, DLPNO-CCSD(T), (RO)-DLPNO pert. Triples
   Tobias Risthaus        : Range-separated hybrids, TD-DFT gradient, RPA, STAB
   Michael Roemelt        : Original ROCIS implementation
   Masaaki Saitow         : Open-shell DLPNO-CCSD energy and density
   Barbara Sandhoefer     : DKH picture change effects
   Avijit Sen             : IP-ROCIS
   Kantharuban Sivalingam : CASSCF convergence, NEVPT2, FIC-MRCI
   Bernardo de Souza      : ESD, SOC TD-DFT
   Georgi Stoychev        : AutoAux, RI-MP2 NMR, DLPNO-MP2 response
   Willem Van den Heuvel  : Paramagnetic NMR
   Boris Wezisla          : Elementary symmetry handling
   Frank Wennmohs         : Technical directorship


 We gratefully acknowledge several colleagues who have allowed us to
 interface, adapt or use parts of their codes:
   Stefan Grimme, W. Hujo, H. Kruse, P. Pracht,  : VdW corrections, initial TS optimization,
                  C. Bannwarth, S. Ehlert          DFT functionals, gCP, sTDA/sTD-DF
   Ed Valeev, F. Pavosevic, A. Kumar             : LibInt (2-el integral package), F12 methods
   Garnet Chan, S. Sharma, J. Yang, R. Olivares  : DMRG
   Ulf Ekstrom                                   : XCFun DFT Library
   Mihaly Kallay                                 : mrcc  (arbitrary order and MRCC methods)
   Jiri Pittner, Ondrej Demel                    : Mk-CCSD
   Frank Weinhold                                : gennbo (NPA and NBO analysis)
   Christopher J. Cramer and Donald G. Truhlar   : smd solvation model
   Lars Goerigk                                  : TD-DFT with DH, B97 family of functionals
   V. Asgeirsson, H. Jonsson                     : NEB implementation
   FAccTs GmbH                                   : IRC, NEB, NEB-TS, DLPNO-Multilevel, CI-OPT
                                                   MM, QMMM, 2- and 3-layer-ONIOM, Crystal-QMMM,
                                                   LR-CPCM, SF, NACMEs, symmetry and pop. for TD-DFT,
                                                   nearIR, NL-DFT gradient (VV10), updates on ESD,
                                                   ML-optimized integration grids
   S Lehtola, MJT Oliveira, MAL Marques          : LibXC Library
   Liviu Ungur et al                             : ANISO software


 Your calculation uses the libint2 library for the computation of 2-el integrals
 For citations please refer to: http://libint.valeyev.net

 Your ORCA version has been built with support for libXC version: 5.1.0
 For citations please refer to: https://tddft.org/programs/libxc/

 This ORCA versions uses:
   CBLAS   interface :  Fast vector & matrix operations
   LAPACKE interface :  Fast linear algebra routines
   SCALAPACK package :  Parallel linear algebra routines
   Shared memory     :  Shared parallel matrices
   BLAS/LAPACK       :  OpenBLAS 0.3.15  USE64BITINT DYNAMIC_ARCH NO_AFFINITY Barcelona SINGLE_THREADED
        Core in use  :  Barcelona
   Copyright (c) 2011-2014, The OpenBLAS Project




***************************************
The coordinates will be read from file: init_ts1.xyz
***************************************


Your calculation utilizes the atom-pairwise dispersion correction
with the Becke-Johnson damping scheme (D3BJ)
Cite in your paper:
S.Grimme, S.Ehrlich, L.Goerigk, J Comput Chem, (2011), 32, 1456–1465 
S.Grimme, J.Antony, S.Ehrlich and H.Krieg, J.Chem.Phys., 132, (2010), 154104 
   

================================================================================

----- Orbital basis set information -----
Your calculation utilizes the basis: def2-TZVP
   F. Weigend and R. Ahlrichs, Phys. Chem. Chem. Phys. 7, 3297 (2005).

----- AuxJ basis set information -----
Your calculation utilizes the auxiliary basis: def2/J
   F. Weigend, Phys. Chem. Chem. Phys. 8, 1057 (2006).

================================================================================
                                        WARNINGS
                       Please study these warnings very carefully!
================================================================================


WARNING: Geometry Optimization
  ===> : Switching off AutoStart
         For restart on a previous wavefunction, please use MOREAD

INFO   : the flag for use of the SHARK integral package has been found!

================================================================================
                                       INPUT FILE
================================================================================
NAME = ts.inp
|  1> !BLYP D3BJ def2-TZVP OptTS Freq xyzfile
|  2> 
|  3> %geom
|  4> TS_Mode {B 3 9} end
|  5> end
|  6> 
|  7> %Freq
|  8> Temp 298.15
|  9> end
| 10> 
| 11> %pal
| 12> nprocs 6
| 13> end
| 14> 
| 15> *xyzfile 0 1 init_ts1.xyz
| 16> 
| 17>                          ****END OF INPUT****
================================================================================

                       *****************************
                       * Geometry Optimization Run *
                       *****************************

Geometry optimization settings:
Update method            Update   .... Bofill
Choice of coordinates    CoordSys .... Z-matrix Internals
Initial Hessian          InHess   .... Almoef's Model

Convergence Tolerances:
Energy Change            TolE     ....  5.0000e-06 Eh
Max. Gradient            TolMAXG  ....  3.0000e-04 Eh/bohr
RMS Gradient             TolRMSG  ....  1.0000e-04 Eh/bohr
Max. Displacement        TolMAXD  ....  4.0000e-03 bohr
RMS Displacement         TolRMSD  ....  2.0000e-03 bohr
Strict Convergence                ....  False
------------------------------------------------------------------------------
                        ORCA OPTIMIZATION COORDINATE SETUP
------------------------------------------------------------------------------

The optimization will be done in new redundant internal coordinates
Making redundant internal coordinates   ...  (new redundants) done
Following TS mode number                ...    internal coordinate number: 10
Evaluating the initial hessian          ...  (Almloef) done
Evaluating the coordinates              ...  done
Calculating the B-matrix                .... done
Calculating the G-matrix                .... done
Diagonalizing the G-matrix              .... done
The first mode is                       ....   11
The number of degrees of freedom        ....   24

    -----------------------------------------------------------------
                    Redundant Internal Coordinates


    -----------------------------------------------------------------
         Definition                    Initial Value    Approx d2E/dq
    -----------------------------------------------------------------
      1. B(C   2,O   0)                  1.3022         0.772472   
      2. B(C   2,C   1)                  1.4957         0.423668   
      3. B(C   3,C   2)                  1.4263         0.546696   
      4. B(H   4,C   1)                  1.0979         0.349771   
      5. B(H   5,C   1)                  1.0941         0.354736   
      6. B(H   6,C   1)                  1.0998         0.347414   
      7. B(H   7,C   3)                  1.0961         0.352072   
      8. B(H   8,C   3)                  1.0915         0.358090   
      9. B(H   9,O   0)                  1.3098         0.143831   
     10. B(H   9,C   3)                  1.5278         0.072101   
     11. A(C   2,O   0,H   9)           77.7746         0.309890   
     12. A(H   5,C   1,H   6)          109.4885         0.288529   
     13. A(H   4,C   1,H   6)          106.5944         0.287893   
     14. A(C   2,C   1,H   5)          111.9100         0.330296   
     15. A(H   4,C   1,H   5)          109.8854         0.288834   
     16. A(C   2,C   1,H   6)          109.3798         0.329160   
     17. A(C   2,C   1,H   4)          109.4378         0.329528   
     18. A(C   1,C   2,C   3)          129.7324         0.396684   
     19. A(O   0,C   2,C   3)          109.7227         0.438590   
     20. A(O   0,C   2,C   1)          120.5105         0.418988   
     21. A(H   7,C   3,H   8)          112.9198         0.289558   
     22. A(C   2,C   3,H   8)          121.6825         0.345174   
     23. A(C   2,C   3,H   7)          112.6941         0.344193   
     24. D(C   1,C   2,O   0,H   9)    167.2110         0.045617   
     25. D(O   0,C   2,C   1,H   6)    105.8168         0.013266   
     26. D(C   3,C   2,O   0,H   9)    -10.8575         0.045617   
     27. D(C   3,C   2,C   1,H   4)     39.8874         0.013266   
     28. D(O   0,C   2,C   1,H   4)   -137.7481         0.013266   
     29. D(C   3,C   2,C   1,H   5)    161.9412         0.013266   
     30. D(C   3,C   2,C   1,H   6)    -76.5477         0.013266   
     31. D(O   0,C   2,C   1,H   5)    -15.6944         0.013266   
     32. D(H   8,C   3,C   2,C   1)    -23.4795         0.022177   
     33. D(H   8,C   3,C   2,O   0)    154.3565         0.022177   
     34. D(H   7,C   3,C   2,C   1)    115.4717         0.022177   
     35. D(H   7,C   3,C   2,O   0)    -66.6922         0.022177   
    -----------------------------------------------------------------

Number of atoms                         .... 10
Number of degrees of freedom            .... 35

         *************************************************************
         *                GEOMETRY OPTIMIZATION CYCLE   1            *
         *************************************************************
---------------------------------
CARTESIAN COORDINATES (ANGSTROEM)
---------------------------------
  O     -0.482579   -1.115239    0.501929
  C      1.471285    0.234516   -0.019118
  C     -0.004421    0.034467    0.120637
  C     -1.071757    0.962635   -0.063130
  H      1.747831    1.214011    0.392640
  H      2.039550   -0.554140    0.482997
  H      1.737238    0.255870   -1.086025
  H     -1.727389    0.693057   -0.899187
  H     -0.916692    2.039457    0.025379
  H     -1.525947   -0.330953    0.611049

----------------------------
CARTESIAN COORDINATES (A.U.)
----------------------------
  NO LB      ZA    FRAG     MASS         X           Y           Z
   0 O     8.0000    0    15.999   -0.911942   -2.107496    0.948508
   1 C     6.0000    0    12.011    2.780326    0.443171   -0.036128
   2 C     6.0000    0    12.011   -0.008354    0.065133    0.227971
   3 C     6.0000    0    12.011   -2.025327    1.819117   -0.119298
   4 H     1.0000    0     1.008    3.302922    2.294148    0.741982
   5 H     1.0000    0     1.008    3.854191   -1.047173    0.912732
   6 H     1.0000    0     1.008    3.282904    0.483524   -2.052290
   7 H     1.0000    0     1.008   -3.264292    1.309688   -1.699217
   8 H     1.0000    0     1.008   -1.732297    3.854015    0.047959
   9 H     1.0000    0     1.008   -2.883622   -0.625411    1.154715

--------------------------------
INTERNAL COORDINATES (ANGSTROEM)
--------------------------------
 O      0   0   0     0.000000000000     0.00000000     0.00000000
 C      1   0   0     2.431236941709     0.00000000     0.00000000
 C      1   2   0     1.302245195293    32.00780578     0.00000000
 C      3   1   2     1.426349285206   109.72274570   181.93150615
 H      2   1   3     1.097922035349   128.12201804    53.70547307
 H      2   1   3     1.094085403333    85.34645465   165.41610304
 H      2   1   3     1.099762491711   114.39566270   274.72245634
 H      4   3   1     1.096137274595   112.69409514   293.30781829
 H      4   3   1     1.091523988280   121.68254110   154.35654594
 H      1   2   3     1.309820021079   109.00182064   346.77304399

---------------------------
INTERNAL COORDINATES (A.U.)
---------------------------
 O      0   0   0     0.000000000000     0.00000000     0.00000000
 C      1   0   0     4.594371986502     0.00000000     0.00000000
 C      1   2   0     2.460886778319    32.00780578     0.00000000
 C      3   1   2     2.695409520355   109.72274570   181.93150615
 H      2   1   3     2.074771963207   128.12201804    53.70547307
 H      2   1   3     2.067521779420    85.34645465   165.41610304
 H      2   1   3     2.078249921692   114.39566270   274.72245634
 H      4   3   1     2.071399254168   112.69409514   293.30781829
 H      4   3   1     2.062681406454   121.68254110   154.35654594
 H      1   2   3     2.475201124567   109.00182064   346.77304399

---------------------
BASIS SET INFORMATION
---------------------
There are 3 groups of distinct atoms

 Group   1 Type O   : 11s6p2d1f contracted to 5s3p2d1f pattern {62111/411/11/1}
 Group   2 Type C   : 11s6p2d1f contracted to 5s3p2d1f pattern {62111/411/11/1}
 Group   3 Type H   : 5s1p contracted to 3s1p pattern {311/1}

Atom   0O    basis set group =>   1
Atom   1C    basis set group =>   2
Atom   2C    basis set group =>   2
Atom   3C    basis set group =>   2
Atom   4H    basis set group =>   3
Atom   5H    basis set group =>   3
Atom   6H    basis set group =>   3
Atom   7H    basis set group =>   3
Atom   8H    basis set group =>   3
Atom   9H    basis set group =>   3
---------------------------------
AUXILIARY/J BASIS SET INFORMATION
---------------------------------
There are 3 groups of distinct atoms

 Group   1 Type O   : 12s5p4d2f1g contracted to 6s4p3d1f1g pattern {711111/2111/211/2/1}
 Group   2 Type C   : 12s5p4d2f1g contracted to 6s4p3d1f1g pattern {711111/2111/211/2/1}
 Group   3 Type H   : 5s2p1d contracted to 3s1p1d pattern {311/2/1}

Atom   0O    basis set group =>   1
Atom   1C    basis set group =>   2
Atom   2C    basis set group =>   2
Atom   3C    basis set group =>   2
Atom   4H    basis set group =>   3
Atom   5H    basis set group =>   3
Atom   6H    basis set group =>   3
Atom   7H    basis set group =>   3
Atom   8H    basis set group =>   3
Atom   9H    basis set group =>   3


           ************************************************************
           *        Program running with 6 parallel MPI-processes     *
           *              working on a common directory               *
           ************************************************************
------------------------------------------------------------------------------
                           ORCA GTO INTEGRAL CALCULATION
                           -- RI-GTO INTEGRALS CHOSEN --
------------------------------------------------------------------------------
------------------------------------------------------------------------------
                   ___                                                        
                  /   \      - P O W E R E D   B Y -                         
                 /     \                                                     
                 |  |  |   _    _      __       _____    __    __             
                 |  |  |  | |  | |    /  \     |  _  \  |  |  /  |          
                  \  \/   | |  | |   /    \    | | | |  |  | /  /          
                 / \  \   | |__| |  /  /\  \   | |_| |  |  |/  /          
                |  |  |   |  __  | /  /__\  \  |    /   |      \           
                |  |  |   | |  | | |   __   |  |    \   |  |\   \          
                \     /   | |  | | |  |  |  |  | |\  \  |  | \   \       
                 \___/    |_|  |_| |__|  |__|  |_| \__\ |__|  \__/        
                                                                              
                      - O R C A' S   B I G   F R I E N D -                    
                                      &                                       
                       - I N T E G R A L  F E E D E R -                       
                                                                              
 v1 FN, 2020, v2 2021                                                         
------------------------------------------------------------------------------


Reading SHARK input file ts.SHARKINP.tmp ... ok
----------------------
SHARK INTEGRAL PACKAGE
----------------------

Number of atoms                             ...     10
Number of basis functions                   ...    160
Number of shells                            ...     68
Maximum angular momentum                    ...      3
Integral batch strategy                     ... SHARK/LIBINT Hybrid
RI-J (if used) integral strategy            ... SPLIT-RIJ (Revised 2003 algorithm where possible)
Printlevel                                  ...      1
Contraction scheme used                     ... SEGMENTED contraction
Coulomb Range Separation                    ... NOT USED
Exchange Range Separation                   ... NOT USED
Finite Nucleus Model                        ... NOT USED
Auxiliary Coulomb fitting basis             ... AVAILABLE
   # of basis functions in Aux-J            ...    262
   # of shells in Aux-J                     ...     90
   Maximum angular momentum in Aux-J        ...      4
Auxiliary J/K fitting basis                 ... NOT available
Auxiliary Correlation fitting basis         ... NOT available
Auxiliary 'external' fitting basis          ... NOT available
Integral threshold                          ...     2.500000e-11
Primitive cut-off                           ...     2.500000e-12
Primitive pair pre-selection threshold      ...     2.500000e-12

Calculating pre-screening integrals         ... done (  0.0 sec) Dimension = 68
Organizing shell pair data                  ... done (  0.0 sec)
Shell pair information
Total number of shell pairs                 ...      2346
Shell pairs after pre-screening             ...      2298
Total number of primitive shell pairs       ...      6892
Primitive shell pairs kept                  ...      5538
          la=0 lb=0:    702 shell pairs
          la=1 lb=0:    677 shell pairs
          la=1 lb=1:    171 shell pairs
          la=2 lb=0:    302 shell pairs
          la=2 lb=1:    144 shell pairs
          la=2 lb=2:     36 shell pairs
          la=3 lb=0:    152 shell pairs
          la=3 lb=1:     72 shell pairs
          la=3 lb=2:     32 shell pairs
          la=3 lb=3:     10 shell pairs

Calculating one electron integrals          ... done (  0.0 sec)
Calculating RI/J V-Matrix + Cholesky decomp.... done (  0.0 sec)
Calculating Nuclear repulsion               ... done (  0.0 sec) ENN=    120.119530648483 Eh

SHARK setup successfully completed in   0.2 seconds

Maximum memory used throughout the entire GTOINT-calculation: 15.9 MB


           ************************************************************
           *        Program running with 6 parallel MPI-processes     *
           *              working on a common directory               *
           ************************************************************
-------------------------------------------------------------------------------
                                 ORCA SCF
-------------------------------------------------------------------------------

------------
SCF SETTINGS
------------
Hamiltonian:
 Density Functional     Method          .... DFT(GTOs)
 Exchange Functional    Exchange        .... B88
   X-Alpha parameter    XAlpha          ....  0.666667
   Becke's b parameter  XBeta           ....  0.004200
 Correlation Functional Correlation     .... LYP
 Gradients option       PostSCFGGA      .... off
   Density functional embedding theory  .... OFF
   NL short-range parameter             ....  4.000000
 RI-approximation to the Coulomb term is turned on
   Number of AuxJ basis functions       .... 262


General Settings:
 Integral files         IntName         .... ts
 Hartree-Fock type      HFTyp           .... RHF
 Total Charge           Charge          ....    0
 Multiplicity           Mult            ....    1
 Number of Electrons    NEL             ....   32
 Basis Dimension        Dim             ....  160
 Nuclear Repulsion      ENuc            ....    120.1195306485 Eh

Convergence Acceleration:
 DIIS                   CNVDIIS         .... on
   Start iteration      DIISMaxIt       ....    12
   Startup error        DIISStart       ....  0.200000
   # of expansion vecs  DIISMaxEq       ....     5
   Bias factor          DIISBfac        ....   1.050
   Max. coefficient     DIISMaxC        ....  10.000
 Trust-Rad. Augm. Hess. CNVTRAH         .... auto
   Auto Start mean grad. ratio tolernc. ....  1.125000
   Auto Start start iteration           ....    20
   Auto Start num. interpolation iter.  ....    10
   Max. Number of Micro iterations      ....    16
   Max. Number of Macro iterations      .... Maxiter - #DIIS iter
   Number of Davidson start vectors     ....     2
   Converg. threshold I  (grad. norm)   ....   1.000e-05
   Converg. threshold II (energy diff.) ....   1.000e-08
   Grad. Scal. Fac. for Micro threshold ....   0.100
   Minimum threshold for Micro iter.    ....   0.010
   NR start threshold (gradient norm)   ....   0.001
   Initial trust radius                 ....   0.400
   Minimum AH scaling param. (alpha)    ....   1.000
   Maximum AH scaling param. (alpha)    .... 1000.000
   Orbital update algorithm             .... Taylor
   White noise on init. David. guess    .... on
   Maximum white noise                  ....   0.010
   Quad. conv. algorithm                .... NR
 SOSCF                  CNVSOSCF        .... on
   Start iteration      SOSCFMaxIt      ....   150
   Startup grad/error   SOSCFStart      ....  0.003300
 Level Shifting         CNVShift        .... on
   Level shift para.    LevelShift      ....    0.2500
   Turn off err/grad.   ShiftErr        ....    0.0010
 Zerner damping         CNVZerner       .... off
 Static damping         CNVDamp         .... on
   Fraction old density DampFac         ....    0.7000
   Max. Damping (<1)    DampMax         ....    0.9800
   Min. Damping (>=0)   DampMin         ....    0.0000
   Turn off err/grad.   DampErr         ....    0.1000
 Fernandez-Rico         CNVRico         .... off

SCF Procedure:
 Maximum # iterations   MaxIter         ....   125
 SCF integral mode      SCFMode         .... Direct
   Integral package                     .... SHARK and LIBINT hybrid scheme
 Reset frequency        DirectResetFreq ....    20
 Integral Threshold     Thresh          ....  2.500e-11 Eh
 Primitive CutOff       TCut            ....  2.500e-12 Eh

Convergence Tolerance:
 Convergence Check Mode ConvCheckMode   .... Total+1el-Energy
 Convergence forced     ConvForced      .... 0
 Energy Change          TolE            ....  1.000e-08 Eh
 1-El. energy change                    ....  1.000e-05 Eh
 Orbital Gradient       TolG            ....  1.000e-05
 Orbital Rotation angle TolX            ....  1.000e-05
 DIIS Error             TolErr          ....  5.000e-07


Diagonalization of the overlap matrix:
Smallest eigenvalue                        ... 2.200e-04
Time for diagonalization                   ...    0.008 sec
Threshold for overlap eigenvalues          ... 1.000e-08
Number of eigenvalues below threshold      ... 0
Time for construction of square roots      ...    0.005 sec
Total time needed                          ...    0.014 sec

Time for model grid setup =    0.058 sec

------------------------------
INITIAL GUESS: MODEL POTENTIAL
------------------------------
Loading Hartree-Fock densities                     ... done
Calculating cut-offs                               ... done
Initializing the effective Hamiltonian             ... done
Setting up the integral package (SHARK)            ... done
Starting the Coulomb interaction                   ... done (   0.0 sec)
Reading the grid                                   ... done
Mapping shells                                     ... done
Starting the XC term evaluation                    ... done (   0.0 sec)
  promolecular density results
     # of electrons  =     31.995703248
     EX              =    -25.358656406
     EC              =     -1.051466431
     EX+EC           =    -26.410122837
Transforming the Hamiltonian                       ... done (   0.0 sec)
Diagonalizing the Hamiltonian                      ... done (   0.0 sec)
Back transforming the eigenvectors                 ... done (   0.0 sec)
Now organizing SCF variables                       ... done
                      ------------------
                      INITIAL GUESS DONE (   0.2 sec)
                      ------------------
-------------------
DFT GRID GENERATION
-------------------

General Integration Accuracy     IntAcc      ... 4.388
Radial Grid Type                 RadialGrid  ... OptM3 with GC (2021)
Angular Grid (max. ang.)         AngularGrid ... 4 (Lebedev-302)
Angular grid pruning method      GridPruning ... 4 (adaptive)
Weight generation scheme         WeightScheme... Becke
Basis function cutoff            BFCut       ... 1.0000e-11
Integration weight cutoff        WCut        ... 1.0000e-14
Angular grids for H and He will be reduced by one unit
Partially contracted basis set               ... off
Rotationally invariant grid construction     ... off

Total number of grid points                  ...    43756
Total number of batches                      ...      689
Average number of points per batch           ...       63
Average number of grid points per atom       ...     4376
Time for grid setup =    0.192 sec

--------------
SCF ITERATIONS
--------------
ITER       Energy         Delta-E        Max-DP      RMS-DP      [F,P]     Damp
               ***  Starting incremental Fock matrix formation  ***
  0   -192.8791398461   0.000000000000 0.04969894  0.00174617  0.2355061 0.7000
  1   -192.9706418839  -0.091502037772 0.03571312  0.00120492  0.1041816 0.7000
                               ***Turning on DIIS***
  2   -192.9988375375  -0.028195653585 0.04184027  0.00173800  0.0288227 0.0000
  3   -193.0414318535  -0.042594316022 0.02990879  0.00083271  0.0742496 0.0000
  4   -193.0552948423  -0.013862988859 0.00820063  0.00031596  0.0209224 0.0000
  5   -193.0572856330  -0.001990790683 0.00409026  0.00013661  0.0057249 0.0000
                      *** Initiating the SOSCF procedure ***
                           *** Shutting down DIIS ***
                      *** Re-Reading the Fockian *** 
                      *** Removing any level shift *** 
ITER      Energy       Delta-E        Grad      Rot      Max-DP    RMS-DP
  6   -193.05744018  -0.0001545489  0.000704  0.000704  0.001701  0.000063
               *** Restarting incremental Fock matrix formation ***
  7   -193.05745536  -0.0000151782  0.000281  0.001392  0.001483  0.000057
  8   -193.05745476   0.0000005981  0.000311  0.001252  0.000632  0.000023
  9   -193.05745791  -0.0000031489  0.000230  0.000703  0.000582  0.000022
 10   -193.05745688   0.0000010265  0.000285  0.000373  0.000295  0.000009
 11   -193.05745839  -0.0000015057  0.000079  0.000411  0.000295  0.000012
 12   -193.05745825   0.0000001364  0.000066  0.000146  0.000128  0.000005
 13   -193.05745853  -0.0000002779  0.000008  0.000075  0.000047  0.000002
 14   -193.05745853  -0.0000000021  0.000006  0.000034  0.000021  0.000001
                  ***Gradient check signals convergence***
              ***Rediagonalizing the Fockian in SOSCF/NRSCF***

               *****************************************************
               *                     SUCCESS                       *
               *           SCF CONVERGED AFTER  15 CYCLES          *
               *****************************************************


----------------
TOTAL SCF ENERGY
----------------

Total Energy       :         -193.05745854 Eh           -5253.36052 eV

Components:
Nuclear Repulsion  :          120.11953065 Eh            3268.61860 eV
Electronic Energy  :         -313.17698918 Eh           -8521.97912 eV
One Electron Energy:         -498.67169998 Eh          -13569.54682 eV
Two Electron Energy:          185.49471080 Eh            5047.56769 eV

Virial components:
Potential Energy   :         -385.36221362 Eh          -10486.23894 eV
Kinetic Energy     :          192.30475509 Eh            5232.87842 eV
Virial Ratio       :            2.00391412


DFT components:
N(Alpha)           :       16.000022261897 electrons
N(Beta)            :       16.000022261897 electrons
N(Total)           :       32.000044523793 electrons
E(X)               :      -25.894799875542 Eh       
E(C)               :       -1.061370493080 Eh       
E(XC)              :      -26.956170368622 Eh       
DFET-embed. en.    :        0.000000000000 Eh       

---------------
SCF CONVERGENCE
---------------

  Last Energy change         ...   -1.8745e-09  Tolerance :   1.0000e-08
  Last MAX-Density change    ...    4.9718e-06  Tolerance :   1.0000e-07
  Last RMS-Density change    ...    1.9962e-07  Tolerance :   5.0000e-09
  Last Orbital Gradient      ...    7.6745e-07  Tolerance :   1.0000e-05
  Last Orbital Rotation      ...    4.5651e-06  Tolerance :   1.0000e-05

             **** THE GBW FILE WAS UPDATED (ts.gbw) ****
             **** DENSITY ts.scfp WAS UPDATED ****
             **** ENERGY FILE WAS UPDATED (ts.en.tmp) ****
             **** THE GBW FILE WAS UPDATED (ts.gbw) ****
             **** DENSITY ts.scfp WAS UPDATED ****
----------------
ORBITAL ENERGIES
----------------

  NO   OCC          E(Eh)            E(eV) 
   0   2.0000     -18.789866      -511.2982 
   1   2.0000     -10.006413      -272.2883 
   2   2.0000      -9.927579      -270.1431 
   3   2.0000      -9.888755      -269.0867 
   4   2.0000      -0.959389       -26.1063 
   5   2.0000      -0.694701       -18.9038 
   6   2.0000      -0.638415       -17.3722 
   7   2.0000      -0.485670       -13.2158 
   8   2.0000      -0.440814       -11.9952 
   9   2.0000      -0.415227       -11.2989 
  10   2.0000      -0.402829       -10.9615 
  11   2.0000      -0.356667        -9.7054 
  12   2.0000      -0.355118        -9.6633 
  13   2.0000      -0.321255        -8.7418 
  14   2.0000      -0.278700        -7.5838 
  15   2.0000      -0.187886        -5.1126 
  16   0.0000      -0.077020        -2.0958 
  17   0.0000       0.007343         0.1998 
  18   0.0000       0.045374         1.2347 
  19   0.0000       0.066010         1.7962 
  20   0.0000       0.076214         2.0739 
  21   0.0000       0.079976         2.1762 
  22   0.0000       0.093869         2.5543 
  23   0.0000       0.112912         3.0725 
  24   0.0000       0.142826         3.8865 
  25   0.0000       0.169353         4.6083 
  26   0.0000       0.176012         4.7895 
  27   0.0000       0.189936         5.1684 
  28   0.0000       0.206145         5.6095 
  29   0.0000       0.246124         6.6974 
  30   0.0000       0.259550         7.0627 
  31   0.0000       0.289224         7.8702 
  32   0.0000       0.309861         8.4318 
  33   0.0000       0.329648         8.9702 
  34   0.0000       0.357507         9.7283 
  35   0.0000       0.362937         9.8760 
  36   0.0000       0.381972        10.3940 
  37   0.0000       0.398591        10.8462 
  38   0.0000       0.405370        11.0307 
  39   0.0000       0.420421        11.4402 
  40   0.0000       0.441147        12.0042 
  41   0.0000       0.447210        12.1692 
  42   0.0000       0.452211        12.3053 
  43   0.0000       0.481670        13.1069 
  44   0.0000       0.498630        13.5684 
  45   0.0000       0.548329        14.9208 
  46   0.0000       0.609210        16.5774 
  47   0.0000       0.643322        17.5057 
  48   0.0000       0.692944        18.8560 
  49   0.0000       0.747500        20.3405 
  50   0.0000       0.778036        21.1714 
  51   0.0000       0.813673        22.1412 
  52   0.0000       0.825540        22.4641 
  53   0.0000       0.882112        24.0035 
  54   0.0000       0.903235        24.5783 
  55   0.0000       0.937909        25.5218 
  56   0.0000       0.963692        26.2234 
  57   0.0000       0.994953        27.0740 
  58   0.0000       1.056547        28.7501 
  59   0.0000       1.095339        29.8057 
  60   0.0000       1.137343        30.9487 
  61   0.0000       1.169564        31.8255 
  62   0.0000       1.231633        33.5144 
  63   0.0000       1.334530        36.3144 
  64   0.0000       1.341952        36.5164 
  65   0.0000       1.392799        37.9000 
  66   0.0000       1.421064        38.6691 
  67   0.0000       1.432286        38.9745 
  68   0.0000       1.446937        39.3732 
  69   0.0000       1.472127        40.0586 
  70   0.0000       1.490679        40.5634 
  71   0.0000       1.525341        41.5066 
  72   0.0000       1.533346        41.7245 
  73   0.0000       1.572446        42.7884 
  74   0.0000       1.663029        45.2533 
  75   0.0000       1.686569        45.8939 
  76   0.0000       1.741320        47.3837 
  77   0.0000       1.801585        49.0236 
  78   0.0000       1.806607        49.1603 
  79   0.0000       1.816078        49.4180 
  80   0.0000       1.851883        50.3923 
  81   0.0000       1.904535        51.8250 
  82   0.0000       1.949325        53.0438 
  83   0.0000       1.981180        53.9107 
  84   0.0000       2.021328        55.0031 
  85   0.0000       2.062187        56.1150 
  86   0.0000       2.087577        56.8059 
  87   0.0000       2.161201        58.8093 
  88   0.0000       2.182548        59.3902 
  89   0.0000       2.229723        60.6739 
  90   0.0000       2.244329        61.0713 
  91   0.0000       2.263140        61.5832 
  92   0.0000       2.328229        63.3543 
  93   0.0000       2.353137        64.0321 
  94   0.0000       2.429155        66.1007 
  95   0.0000       2.432270        66.1854 
  96   0.0000       2.449320        66.6494 
  97   0.0000       2.474864        67.3445 
  98   0.0000       2.514268        68.4167 
  99   0.0000       2.543841        69.2214 
 100   0.0000       2.603892        70.8555 
 101   0.0000       2.623279        71.3831 
 102   0.0000       2.663701        72.4830 
 103   0.0000       2.694189        73.3126 
 104   0.0000       2.822863        76.8140 
 105   0.0000       2.827967        76.9529 
 106   0.0000       2.864548        77.9483 
 107   0.0000       2.884750        78.4980 
 108   0.0000       2.910554        79.2002 
 109   0.0000       2.958447        80.5034 
 110   0.0000       2.975576        80.9695 
 111   0.0000       3.006953        81.8234 
 112   0.0000       3.040712        82.7420 
 113   0.0000       3.070119        83.5422 
 114   0.0000       3.096797        84.2681 
 115   0.0000       3.115754        84.7840 
 116   0.0000       3.144694        85.5715 
 117   0.0000       3.157793        85.9279 
 118   0.0000       3.193894        86.9103 
 119   0.0000       3.252691        88.5102 
 120   0.0000       3.265488        88.8584 
 121   0.0000       3.290777        89.5466 
 122   0.0000       3.355249        91.3010 
 123   0.0000       3.416334        92.9632 
 124   0.0000       3.431408        93.3734 
 125   0.0000       3.487514        94.9001 
 126   0.0000       3.574604        97.2699 
 127   0.0000       3.617987        98.4504 
 128   0.0000       3.650500        99.3352 
 129   0.0000       3.729402       101.4822 
 130   0.0000       3.757485       102.2464 
 131   0.0000       3.788685       103.0954 
 132   0.0000       3.906979       106.3143 
 133   0.0000       3.918241       106.6208 
 134   0.0000       4.095807       111.4526 
 135   0.0000       4.177010       113.6622 
 136   0.0000       4.209183       114.5377 
 137   0.0000       4.245303       115.5206 
 138   0.0000       4.347257       118.2949 
 139   0.0000       4.401394       119.7680 
 140   0.0000       4.462318       121.4258 
 141   0.0000       4.534929       123.4017 
 142   0.0000       4.655447       126.6812 
 143   0.0000       4.769428       129.7827 
 144   0.0000       5.106268       138.9486 
 145   0.0000       5.303450       144.3142 
 146   0.0000       5.358050       145.8000 
 147   0.0000       5.467189       148.7698 
 148   0.0000       5.775804       157.1676 
 149   0.0000       5.973340       162.5428 
 150   0.0000       6.111477       166.3017 
 151   0.0000       6.269088       170.5906 
 152   0.0000       6.507910       177.0892 
 153   0.0000       6.640929       180.7089 
 154   0.0000       6.828788       185.8208 
 155   0.0000       6.909478       188.0164 
 156   0.0000      21.956034       597.4541 
 157   0.0000      21.993721       598.4796 
 158   0.0000      22.641527       616.1073 
 159   0.0000      43.307109      1178.4463 

                    ********************************
                    * MULLIKEN POPULATION ANALYSIS *
                    ********************************

-----------------------
MULLIKEN ATOMIC CHARGES
-----------------------
   0 O :   -0.329734
   1 C :   -0.304784
   2 C :    0.314294
   3 C :   -0.538709
   4 H :    0.124982
   5 H :    0.125035
   6 H :    0.125813
   7 H :    0.142695
   8 H :    0.091385
   9 H :    0.249024
Sum of atomic charges:   -0.0000000

--------------------------------
MULLIKEN REDUCED ORBITAL CHARGES
--------------------------------
  0 O s       :     3.841020  s :     3.841020
      pz      :     1.521048  p :     4.456064
      px      :     1.488065
      py      :     1.446952
      dz2     :     0.004175  d :     0.031282
      dxz     :     0.000791
      dyz     :     0.008407
      dx2y2   :     0.007475
      dxy     :     0.010434
      f0      :     0.000155  f :     0.001367
      f+1     :     0.000090
      f-1     :     0.000284
      f+2     :     0.000178
      f-2     :     0.000130
      f+3     :     0.000249
      f-3     :     0.000282
  1 C s       :     3.295916  s :     3.295916
      pz      :     1.034769  p :     2.974211
      px      :     0.890129
      py      :     1.049313
      dz2     :     0.002274  d :     0.031491
      dxz     :     0.012078
      dyz     :     0.000534
      dx2y2   :     0.005061
      dxy     :     0.011543
      f0      :     0.000938  f :     0.003165
      f+1     :     0.000243
      f-1     :     0.000036
      f+2     :     0.000358
      f-2     :     0.000036
      f+3     :     0.000835
      f-3     :     0.000718
  2 C s       :     3.211601  s :     3.211601
      pz      :     0.736133  p :     2.274966
      px      :     0.802334
      py      :     0.736500
      dz2     :     0.014153  d :     0.181714
      dxz     :     0.032779
      dyz     :     0.035511
      dx2y2   :     0.049096
      dxy     :     0.050176
      f0      :     0.001499  f :     0.017424
      f+1     :     0.001071
      f-1     :     0.001815
      f+2     :     0.001971
      f-2     :     0.002354
      f+3     :     0.003585
      f-3     :     0.005128
  3 C s       :     3.339621  s :     3.339621
      pz      :     1.188503  p :     3.158608
      px      :     0.985647
      py      :     0.984459
      dz2     :     0.004321  d :     0.036068
      dxz     :     0.004696
      dyz     :     0.007370
      dx2y2   :     0.012545
      dxy     :     0.007137
      f0      :     0.000535  f :     0.004412
      f+1     :     0.000638
      f-1     :     0.000373
      f+2     :     0.000389
      f-2     :     0.000389
      f+3     :     0.001076
      f-3     :     0.001011
  4 H s       :     0.853704  s :     0.853704
      pz      :     0.005616  p :     0.021315
      px      :     0.005090
      py      :     0.010609
  5 H s       :     0.853668  s :     0.853668
      pz      :     0.005932  p :     0.021298
      px      :     0.006821
      py      :     0.008545
  6 H s       :     0.852697  s :     0.852697
      pz      :     0.011811  p :     0.021490
      px      :     0.005070
      py      :     0.004609
  7 H s       :     0.833489  s :     0.833489
      pz      :     0.010281  p :     0.023816
      px      :     0.008964
      py      :     0.004572
  8 H s       :     0.885643  s :     0.885643
      pz      :     0.006016  p :     0.022972
      px      :     0.004291
      py      :     0.012665
  9 H s       :     0.709976  s :     0.709976
      pz      :     0.005631  p :     0.041000
      px      :     0.012242
      py      :     0.023127


                     *******************************
                     * LOEWDIN POPULATION ANALYSIS *
                     *******************************

----------------------
LOEWDIN ATOMIC CHARGES
----------------------
   0 O :    0.066776
   1 C :   -0.251840
   2 C :   -0.375454
   3 C :   -0.394489
   4 H :    0.142048
   5 H :    0.131350
   6 H :    0.143481
   7 H :    0.142979
   8 H :    0.113199
   9 H :    0.281949

-------------------------------
LOEWDIN REDUCED ORBITAL CHARGES
-------------------------------
  0 O s       :     3.436317  s :     3.436317
      pz      :     1.462702  p :     4.419940
      px      :     1.431442
      py      :     1.525796
      dz2     :     0.011032  d :     0.071840
      dxz     :     0.002836
      dyz     :     0.013904
      dx2y2   :     0.022223
      dxy     :     0.021844
      f0      :     0.000421  f :     0.005128
      f+1     :     0.000169
      f-1     :     0.000764
      f+2     :     0.000579
      f-2     :     0.000526
      f+3     :     0.001029
      f-3     :     0.001640
  1 C s       :     2.834128  s :     2.834128
      pz      :     1.066247  p :     3.170331
      px      :     1.035766
      py      :     1.068319
      dz2     :     0.043138  d :     0.223052
      dxz     :     0.045852
      dyz     :     0.019372
      dx2y2   :     0.056323
      dxy     :     0.058366
      f0      :     0.004255  f :     0.024329
      f+1     :     0.003228
      f-1     :     0.000382
      f+2     :     0.003515
      f-2     :     0.003349
      f+3     :     0.005150
      f-3     :     0.004449
  2 C s       :     2.782104  s :     2.782104
      pz      :     0.721989  p :     2.717854
      px      :     1.060678
      py      :     0.935188
      dz2     :     0.071366  d :     0.763023
      dxz     :     0.102523
      dyz     :     0.132598
      dx2y2   :     0.234637
      dxy     :     0.221899
      f0      :     0.006633  f :     0.112473
      f+1     :     0.006940
      f-1     :     0.009923
      f+2     :     0.013701
      f-2     :     0.017931
      f+3     :     0.022922
      f-3     :     0.034423
  3 C s       :     2.880141  s :     2.880141
      pz      :     1.146275  p :     3.264817
      px      :     1.078051
      py      :     1.040491
      dz2     :     0.030594  d :     0.223100
      dxz     :     0.026038
      dyz     :     0.026346
      dx2y2   :     0.082353
      dxy     :     0.057768
      f0      :     0.002018  f :     0.026431
      f+1     :     0.003097
      f-1     :     0.003566
      f+2     :     0.001600
      f-2     :     0.003288
      f+3     :     0.007196
      f-3     :     0.005667
  4 H s       :     0.798343  s :     0.798343
      pz      :     0.016277  p :     0.059608
      px      :     0.013178
      py      :     0.030153
  5 H s       :     0.808453  s :     0.808453
      pz      :     0.017579  p :     0.060197
      px      :     0.017586
      py      :     0.025032
  6 H s       :     0.796882  s :     0.796882
      pz      :     0.033298  p :     0.059637
      px      :     0.013193
      py      :     0.013146
  7 H s       :     0.790083  s :     0.790083
      pz      :     0.030139  p :     0.066938
      px      :     0.022826
      py      :     0.013974
  8 H s       :     0.822731  s :     0.822731
      pz      :     0.016704  p :     0.064070
      px      :     0.013082
      py      :     0.034284
  9 H s       :     0.598359  s :     0.598359
      pz      :     0.011245  p :     0.119692
      px      :     0.035430
      py      :     0.073016


                      *****************************
                      * MAYER POPULATION ANALYSIS *
                      *****************************

  NA   - Mulliken gross atomic population
  ZA   - Total nuclear charge
  QA   - Mulliken gross atomic charge
  VA   - Mayer's total valence
  BVA  - Mayer's bonded valence
  FA   - Mayer's free valence

  ATOM       NA         ZA         QA         VA         BVA        FA
  0 O      8.3297     8.0000    -0.3297     2.1196     2.1196    -0.0000
  1 C      6.3048     6.0000    -0.3048     3.8427     3.8427     0.0000
  2 C      5.6857     6.0000     0.3143     3.7289     3.7289    -0.0000
  3 C      6.5387     6.0000    -0.5387     3.6256     3.6256    -0.0000
  4 H      0.8750     1.0000     0.1250     0.9673     0.9673    -0.0000
  5 H      0.8750     1.0000     0.1250     0.9798     0.9798     0.0000
  6 H      0.8742     1.0000     0.1258     0.9672     0.9672     0.0000
  7 H      0.8573     1.0000     0.1427     0.9795     0.9795     0.0000
  8 H      0.9086     1.0000     0.0914     0.9861     0.9861    -0.0000
  9 H      0.7510     1.0000     0.2490     0.9833     0.9833     0.0000

  Mayer bond orders larger than 0.100000
B(  0-O ,  2-C ) :   1.5134 B(  0-O ,  9-H ) :   0.4497 B(  1-C ,  2-C ) :   0.9531 
B(  1-C ,  4-H ) :   0.9524 B(  1-C ,  5-H ) :   0.9771 B(  1-C ,  6-H ) :   0.9378 
B(  2-C ,  3-C ) :   1.2136 B(  3-C ,  7-H ) :   0.9330 B(  3-C ,  8-H ) :   0.9460 
B(  3-C ,  9-H ) :   0.4519 

-------
TIMINGS
-------

Total SCF time: 0 days 0 hours 0 min 4 sec 

Total time                  ....       4.798 sec
Sum of individual times     ....       4.547 sec  ( 94.8%)

Fock matrix formation       ....       3.393 sec  ( 70.7%)
  Split-RI-J                ....       1.115 sec  ( 32.9% of F)
  XC integration            ....       1.988 sec  ( 58.6% of F)
    Basis function eval.    ....       0.356 sec  ( 17.9% of XC)
    Density eval.           ....       0.571 sec  ( 28.7% of XC)
    XC-Functional eval.     ....       0.063 sec  (  3.2% of XC)
    XC-Potential eval.      ....       0.454 sec  ( 22.8% of XC)
Diagonalization             ....       0.066 sec  (  1.4%)
Density matrix formation    ....       0.012 sec  (  0.3%)
Population analysis         ....       0.015 sec  (  0.3%)
Initial guess               ....       0.114 sec  (  2.4%)
Orbital Transformation      ....       0.000 sec  (  0.0%)
Orbital Orthonormalization  ....       0.000 sec  (  0.0%)
DIIS solution               ....       0.458 sec  (  9.5%)
SOSCF solution              ....       0.238 sec  (  5.0%)
Grid generation             ....       0.250 sec  (  5.2%)

Maximum memory used throughout the entire SCF-calculation: 15.5 MB


-------------------------------------------------------------------------------
                          DFT DISPERSION CORRECTION                            
                                                                               
                              DFTD3 V3.1  Rev 1                                
                          USING Becke-Johnson damping                          
-------------------------------------------------------------------------------
The BLYP functional is recognized
Active option DFTDOPT                   ...         4   

molecular C6(AA) [au] = 794.752430 


            DFT-D V3
 parameters
 s6 scaling factor         :     1.0000 
 a1 scaling factor         :     0.4298 
 s8 scaling factor         :     2.6996 
 a2 scaling factor         :     4.2359 
 ad hoc parameters k1-k3   :    16.0000     1.3333    -4.0000 

 Edisp/kcal,au: -7.865141326701  -0.012533899188 
 E6   /kcal   :  -3.242621605 
 E8   /kcal   :  -4.622519722 
 % E8         :  58.772239810 

-------------------------   ----------------
Dispersion correction           -0.012533899
-------------------------   ----------------


-------------------------   --------------------
FINAL SINGLE POINT ENERGY      -193.069992434947
-------------------------   --------------------



           ************************************************************
           *        Program running with 6 parallel MPI-processes     *
           *              working on a common directory               *
           ************************************************************
------------------------------------------------------------------------------
                         ORCA SCF GRADIENT CALCULATION
------------------------------------------------------------------------------

Gradient of the Kohn-Sham DFT energy:
Kohn-Sham wavefunction type      ... RKS
Hartree-Fock exchange scaling    ...    0.000
Number of operators              ...    1
Number of atoms                  ...   10
Basis set dimensions             ...  160
Integral neglect threshold       ... 2.5e-11
Integral primitive cutoff        ... 2.5e-12
SHARK Integral package           ... ON

Nuc. rep. gradient       (SHARK) ... done (  0.0 sec)
HCore & Overlap gradient (SHARK) ... done (  0.2 sec)
RI-J gradient            (SHARK) ... done (  0.2 sec)
Exchange-correlation gradient    ... done
Dispersion correction            ... done

------------------
CARTESIAN GRADIENT
------------------

   1   O   :    0.000262371   -0.000230696    0.000005442
   2   C   :    0.000024875   -0.000044344   -0.000126545
   3   C   :    0.000052914   -0.000107432    0.000273701
   4   C   :   -0.000183119   -0.000003173    0.000146324
   5   H   :   -0.000013838   -0.000000952   -0.000007330
   6   H   :    0.000006300   -0.000011156   -0.000016928
   7   H   :    0.000011743    0.000012739   -0.000001974
   8   H   :   -0.000027240    0.000055566   -0.000195503
   9   H   :   -0.000071839    0.000012880   -0.000028898
  10   H   :   -0.000062166    0.000316569   -0.000048289

Difference to translation invariance:
           :   -0.0000000000    0.0000000000    0.0000000000

Difference to rotation invariance:
           :   -0.0001141899    0.0001482021    0.0001514518

Norm of the cartesian gradient     ...    0.0006637180
RMS gradient                       ...    0.0001211778
MAX gradient                       ...    0.0003165693

-------
TIMINGS
-------

Total SCF gradient time            ...        1.202 sec

One electron gradient       ....       0.197 sec  ( 16.4%)
RI-J Coulomb gradient       ....       0.203 sec  ( 16.9%)
XC gradient                 ....       0.653 sec  ( 54.3%)

Maximum memory used throughout the entire SCFGRAD-calculation: 28.1 MB
------------------------------------------------------------------------------
                         ORCA GEOMETRY RELAXATION STEP
------------------------------------------------------------------------------

Reading the OPT-File                    .... done
Getting information on internals        .... done
Copying old internal coords+grads       .... done
Making the new internal coordinates     .... (new redundants).... done
Validating the new internal coordinates .... (new redundants).... done
Calculating the B-matrix                .... done
Calculating the G,G- and P matrices     .... done
Transforming gradient to internals      .... done
Projecting the internal gradient        .... done
Number of atoms                         ....  10
Number of internal coordinates          ....  35
Current Energy                          ....  -193.069992435 Eh
Current gradient norm                   ....     0.000663718 Eh/bohr
Maximum allowed component of the step   ....  0.300
Current trust radius                    ....  0.300
Evaluating the initial hessian          ....  (Almloef) done
Projecting the Hessian                  .... done
Diagonalizing the Hessian               .... done
Dimension of the hessian                ....  35
Lowest eigenvalues of the Hessian:
  0.013266155  0.020387397  0.022176842  0.046716497  0.058901063
Hessian has   0 negative eigenvalues
Taking P-RFO step
Fraction of internal coordinate   9 in mode   0:  0.000000000
 0.000000000 >  0.000000000 for   0
Fraction of internal coordinate   9 in mode   1:  0.041190029
 0.041190029 >  0.000000000 for   1
Fraction of internal coordinate   9 in mode   2:  0.000000000
Fraction of internal coordinate   9 in mode   3:  0.151038206
 0.151038206 >  0.041190029 for   3
Fraction of internal coordinate   9 in mode   4:  0.000000000
Fraction of internal coordinate   9 in mode   5:  0.936556412
 0.936556412 >  0.151038206 for   5
Fraction of internal coordinate   9 in mode   6:  0.000000000
Fraction of internal coordinate   9 in mode   7:  0.000000000
Fraction of internal coordinate   9 in mode   8:  0.088475498
Fraction of internal coordinate   9 in mode   9:  0.000000000
Fraction of internal coordinate   9 in mode  10:  0.000000000
Fraction of internal coordinate   9 in mode  11:  0.000000000
Fraction of internal coordinate   9 in mode  12:  0.000000000
Fraction of internal coordinate   9 in mode  13:  0.000000000
Fraction of internal coordinate   9 in mode  14:  0.000000000
Fraction of internal coordinate   9 in mode  15:  0.000000000
Fraction of internal coordinate   9 in mode  16:  0.000000000
Fraction of internal coordinate   9 in mode  17:  0.000000000
Fraction of internal coordinate   9 in mode  18:  0.000000000
Fraction of internal coordinate   9 in mode  19:  0.059531725
Fraction of internal coordinate   9 in mode  20:  0.013014103
Fraction of internal coordinate   9 in mode  21:  0.000000000
Fraction of internal coordinate   9 in mode  22:  0.014251026
Fraction of internal coordinate   9 in mode  23:  0.049628643
Hessian mode following switched on. 
Following mode   5
Following mode   5 (highest occurence of internal coordinate   9)
Searching for lambda that maximizes along mode:   5
TS mode is mode number   5 with eigenvalue   0.09726689 and components:
   1.   -0.03441436
   2.   -0.00000000
   3.   -0.02020998
   4.    0.00000000
   5.    0.00000000
   6.   -0.00000000
   7.    0.00000000
   8.   -0.00000000
   9.    0.11814769
  10.   -0.93655641
  11.   -0.26290527
  12.    0.00000000
  13.   -0.00000000
  14.    0.00000000
  15.   -0.00000000
  16.    0.00000000
  17.   -0.00000000
  18.    0.06015893
  19.   -0.11597699
  20.    0.05647374
  21.    0.00000000
  22.   -0.00000000
  23.    0.00000000
  24.   -0.08166026
  25.   -0.00999897
  26.   -0.10108167
  27.    0.00999897
  28.   -0.00999897
  29.    0.00999897
  30.    0.00999897
  31.   -0.00999897
  32.   -0.01056432
  33.    0.01056432
  34.   -0.01056432
  35.    0.01056432

Lambda that maximizes along the TS mode:       0.09726733
Searching for lambda that minimizes along all other modes
In cycle   1: lambdaN =  -0.00000203   step =   0.00000203
In cycle   2: lambdaN =  -0.00000203   step =   0.00000000
Lambda that minimizes along all other modes:  -0.00000203
Calculated stepsize too large (   1.3416 >    0.3000). Scaled with    0.2236.
The final length of the internal step   ....       0.3000
Converting the step to cartesian space:
 Initial RMS(Int)=    0.0507092553
Transforming coordinates:
 Iter   0:  RMS(Cart)=    0.0481654358 RMS(Int)=    0.0452065595
 Iter   1:  RMS(Cart)=    0.0025226442 RMS(Int)=    0.0023689488
 Iter   2:  RMS(Cart)=    0.0001533335 RMS(Int)=    0.0001698710
 Iter   3:  RMS(Cart)=    0.0000151090 RMS(Int)=    0.0000109124
 Iter   4:  RMS(Cart)=    0.0000014026 RMS(Int)=    0.0000014326
 Iter   5:  RMS(Cart)=    0.0000000811 RMS(Int)=    0.0000000624
done
Storing new coordinates                 .... done

                                .--------------------.
          ----------------------|Geometry convergence|-------------------------
          Item                value                   Tolerance       Converged
          ---------------------------------------------------------------------
          RMS gradient        0.0000928673            0.0001000000      YES
          MAX gradient        0.0003262017            0.0003000000      NO
          RMS step            0.0507092553            0.0020000000      NO
          MAX step            0.0670820253            0.0040000000      NO
          ........................................................
          Max(Bonds)      0.0355      Max(Angles)    3.84
          Max(Dihed)        3.84      Max(Improp)    0.00
          ---------------------------------------------------------------------

The optimization has not yet converged - more geometry cycles are needed


    ---------------------------------------------------------------------------
                         Redundant Internal Coordinates
                            (Angstroem and degrees)

        Definition                    Value    dE/dq     Step     New-Value  comp.(TS mode)
    ----------------------------------------------------------------------------
     1. B(C   2,O   0)                1.3022 -0.000011 -0.0355    1.2667   
     2. B(C   2,C   1)                1.4957  0.000033 -0.0000    1.4957   
     3. B(C   3,C   2)                1.4263  0.000326 -0.0355    1.3909   
     4. B(H   4,C   1)                1.0979 -0.000009  0.0000    1.0979   
     5. B(H   5,C   1)                1.0941  0.000008 -0.0000    1.0941   
     6. B(H   6,C   1)                1.0998  0.000001 -0.0000    1.0998   
     7. B(H   7,C   3)                1.0961  0.000150 -0.0001    1.0961   
     8. B(H   8,C   3)                1.0915  0.000004 -0.0000    1.0915   
     9. B(H   9,O   0)                1.3098  0.000202  0.0355    1.3453   
    10. B(H   9,C   3)                1.5278 -0.000155 -0.0355    1.4923          0.94
    11. A(C   2,O   0,H   9)           77.77 -0.000197   -3.84     73.93          0.26
    12. A(H   5,C   1,H   6)          109.49 -0.000012    0.00    109.49   
    13. A(H   4,C   1,H   6)          106.59 -0.000006    0.00    106.59   
    14. A(C   2,C   1,H   5)          111.91 -0.000004    0.00    111.91   
    15. A(H   4,C   1,H   5)          109.89  0.000013   -0.00    109.88   
    16. A(C   2,C   1,H   6)          109.38  0.000028   -0.00    109.38   
    17. A(C   2,C   1,H   4)          109.44 -0.000020    0.00    109.44   
    18. A(C   1,C   2,C   3)          129.73 -0.000007    3.84    133.58   
    19. A(O   0,C   2,C   3)          109.72  0.000092   -3.84    105.88   
    20. A(O   0,C   2,C   1)          120.51 -0.000083    3.84    124.35   
    21. A(H   7,C   3,H   8)          112.92 -0.000097    0.01    112.93   
    22. A(C   2,C   3,H   8)          121.68  0.000075    0.00    121.68   
    23. A(C   2,C   3,H   7)          112.69 -0.000014    0.00    112.70   
    24. D(C   1,C   2,O   0,H   9)    167.21 -0.000002   -3.84    163.37   
    25. D(O   0,C   2,C   1,H   6)    105.82 -0.000012   -3.84    101.97   
    26. D(C   3,C   2,O   0,H   9)    -10.86 -0.000044   -3.84    -14.70   
    27. D(C   3,C   2,C   1,H   4)     39.89  0.000039    3.84     43.73   
    28. D(O   0,C   2,C   1,H   4)   -137.75 -0.000014   -3.84   -141.59   
    29. D(C   3,C   2,C   1,H   5)    161.94  0.000040    3.84    165.78   
    30. D(C   3,C   2,C   1,H   6)    -76.55  0.000042    3.84    -72.70   
    31. D(O   0,C   2,C   1,H   5)    -15.69 -0.000014   -3.84    -19.54   
    32. D(H   8,C   3,C   2,C   1)    -23.48 -0.000043   -3.84    -27.32   
    33. D(H   8,C   3,C   2,O   0)    154.36  0.000003    3.84    158.20   
    34. D(H   7,C   3,C   2,C   1)    115.47 -0.000136   -3.84    111.63   
    35. D(H   7,C   3,C   2,O   0)    -66.69 -0.000090    3.84    -62.85   
    ----------------------------------------------------------------------------

         *************************************************************
         *                GEOMETRY OPTIMIZATION CYCLE   2            *
         *************************************************************
---------------------------------
CARTESIAN COORDINATES (ANGSTROEM)
---------------------------------
  O     -0.505767   -1.093100    0.440622
  C      1.473477    0.237688   -0.015448
  C     -0.001623    0.047614    0.143252
  C     -1.063645    0.931096   -0.063582
  H      1.764464    1.208087    0.407744
  H      2.042431   -0.563639    0.465364
  H      1.723656    0.274065   -1.085759
  H     -1.692538    0.644547   -0.914340
  H     -0.936355    2.011447    0.026202
  H     -1.536980   -0.264124    0.663115

----------------------------
CARTESIAN COORDINATES (A.U.)
----------------------------
  NO LB      ZA    FRAG     MASS         X           Y           Z
   0 O     8.0000    0    15.999   -0.955762   -2.065660    0.832655
   1 C     6.0000    0    12.011    2.784467    0.449166   -0.029193
   2 C     6.0000    0    12.011   -0.003066    0.089977    0.270707
   3 C     6.0000    0    12.011   -2.009999    1.759517   -0.120152
   4 H     1.0000    0     1.008    3.334353    2.282954    0.770525
   5 H     1.0000    0     1.008    3.859636   -1.065124    0.879411
   6 H     1.0000    0     1.008    3.257238    0.517908   -2.051786
   7 H     1.0000    0     1.008   -3.198434    1.218018   -1.727852
   8 H     1.0000    0     1.008   -1.769454    3.801084    0.049515
   9 H     1.0000    0     1.008   -2.904471   -0.499122    1.253105

--------------------------------
INTERNAL COORDINATES (ANGSTROEM)
--------------------------------
 O      0   0   0     0.000000000000     0.00000000     0.00000000
 C      1   0   0     2.428251467654     0.00000000     0.00000000
 C      1   2   0     1.282115448214    31.60644494     0.00000000
 C      3   1   2     1.396858366997   107.34405980   176.21560119
 H      2   1   3     1.097924937714   128.90417267    49.23135530
 H      2   1   3     1.094082761723    86.55630214   162.14248444
 H      2   1   3     1.099762261849   112.72675933   271.84628256
 H      4   3   1     1.096086805613   112.69394904   296.51893778
 H      4   3   1     1.091522673436   121.67909446   157.56506885
 H      1   2   3     1.341679763531   108.60283497   345.42872134

---------------------------
INTERNAL COORDINATES (A.U.)
---------------------------
 O      0   0   0     0.000000000000     0.00000000     0.00000000
 C      1   0   0     4.588730258159     0.00000000     0.00000000
 C      1   2   0     2.422847069195    31.60644494     0.00000000
 C      3   1   2     2.639679761500   107.34405980   176.21560119
 H      2   1   3     2.074777447881   128.90417267    49.23135530
 H      2   1   3     2.067516787501    86.55630214   162.14248444
 H      2   1   3     2.078249487317   112.72675933   271.84628256
 H      4   3   1     2.071303881614   112.69394904   296.51893778
 H      4   3   1     2.062678921760   121.67909446   157.56506885
 H      1   2   3     2.535407312498   108.60283497   345.42872134



           ************************************************************
           *        Program running with 6 parallel MPI-processes     *
           *              working on a common directory               *
           ************************************************************
------------------------------------------------------------------------------
                   ___                                                        
                  /   \      - P O W E R E D   B Y -                         
                 /     \                                                     
                 |  |  |   _    _      __       _____    __    __             
                 |  |  |  | |  | |    /  \     |  _  \  |  |  /  |          
                  \  \/   | |  | |   /    \    | | | |  |  | /  /          
                 / \  \   | |__| |  /  /\  \   | |_| |  |  |/  /          
                |  |  |   |  __  | /  /__\  \  |    /   |      \           
                |  |  |   | |  | | |   __   |  |    \   |  |\   \          
                \     /   | |  | | |  |  |  |  | |\  \  |  | \   \       
                 \___/    |_|  |_| |__|  |__|  |_| \__\ |__|  \__/        
                                                                              
                      - O R C A' S   B I G   F R I E N D -                    
                                      &                                       
                       - I N T E G R A L  F E E D E R -                       
                                                                              
 v1 FN, 2020, v2 2021                                                         
------------------------------------------------------------------------------


Reading SHARK input file ts.SHARKINP.tmp ... ok
----------------------
SHARK INTEGRAL PACKAGE
----------------------

Number of atoms                             ...     10
Number of basis functions                   ...    160
Number of shells                            ...     68
Maximum angular momentum                    ...      3
Integral batch strategy                     ... SHARK/LIBINT Hybrid
RI-J (if used) integral strategy            ... SPLIT-RIJ (Revised 2003 algorithm where possible)
Printlevel                                  ...      1
Contraction scheme used                     ... SEGMENTED contraction
Coulomb Range Separation                    ... NOT USED
Exchange Range Separation                   ... NOT USED
Finite Nucleus Model                        ... NOT USED
Auxiliary Coulomb fitting basis             ... AVAILABLE
   # of basis functions in Aux-J            ...    262
   # of shells in Aux-J                     ...     90
   Maximum angular momentum in Aux-J        ...      4
Auxiliary J/K fitting basis                 ... NOT available
Auxiliary Correlation fitting basis         ... NOT available
Auxiliary 'external' fitting basis          ... NOT available
Integral threshold                          ...     2.500000e-11
Primitive cut-off                           ...     2.500000e-12
Primitive pair pre-selection threshold      ...     2.500000e-12

Calculating pre-screening integrals         ... done (  0.0 sec) Dimension = 68
Organizing shell pair data                  ... done (  0.0 sec)
Shell pair information
Total number of shell pairs                 ...      2346
Shell pairs after pre-screening             ...      2299
Total number of primitive shell pairs       ...      6892
Primitive shell pairs kept                  ...      5545
          la=0 lb=0:    703 shell pairs
          la=1 lb=0:    677 shell pairs
          la=1 lb=1:    171 shell pairs
          la=2 lb=0:    302 shell pairs
          la=2 lb=1:    144 shell pairs
          la=2 lb=2:     36 shell pairs
          la=3 lb=0:    152 shell pairs
          la=3 lb=1:     72 shell pairs
          la=3 lb=2:     32 shell pairs
          la=3 lb=3:     10 shell pairs

Calculating one electron integrals          ... done (  0.0 sec)
Calculating RI/J V-Matrix + Cholesky decomp.... done (  0.0 sec)
Calculating Nuclear repulsion               ... done (  0.0 sec) ENN=    121.279032455438 Eh

SHARK setup successfully completed in   0.2 seconds

Maximum memory used throughout the entire GTOINT-calculation: 15.9 MB


           ************************************************************
           *        Program running with 6 parallel MPI-processes     *
           *              working on a common directory               *
           ************************************************************

Diagonalization of the overlap matrix:
Smallest eigenvalue                        ... 1.815e-04
Time for diagonalization                   ...    0.004 sec
Threshold for overlap eigenvalues          ... 1.000e-08
Number of eigenvalues below threshold      ... 0
Time for construction of square roots      ...    0.003 sec
Total time needed                          ...    0.163 sec

-------------------
DFT GRID GENERATION
-------------------

General Integration Accuracy     IntAcc      ... 4.388
Radial Grid Type                 RadialGrid  ... OptM3 with GC (2021)
Angular Grid (max. ang.)         AngularGrid ... 4 (Lebedev-302)
Angular grid pruning method      GridPruning ... 4 (adaptive)
Weight generation scheme         WeightScheme... Becke
Basis function cutoff            BFCut       ... 1.0000e-11
Integration weight cutoff        WCut        ... 1.0000e-14
Angular grids for H and He will be reduced by one unit
Partially contracted basis set               ... off
Rotationally invariant grid construction     ... off

Total number of grid points                  ...    43741
Total number of batches                      ...      688
Average number of points per batch           ...       63
Average number of grid points per atom       ...     4374
Time for grid setup =    0.230 sec

--------------
SCF ITERATIONS
--------------
ITER       Energy         Delta-E        Max-DP      RMS-DP      [F,P]     Damp
               ***  Starting incremental Fock matrix formation  ***
  0   -193.0499894791   0.000000000000 0.00664137  0.00021187  0.0259210 0.7000
                      *** Initiating the SOSCF procedure ***
                      *** Re-Reading the Fockian *** 
                      *** Removing any level shift *** 
ITER      Energy       Delta-E        Grad      Rot      Max-DP    RMS-DP
  1   -193.05129484  -0.0013053588  0.002644  0.002644  0.021160  0.000672
               *** Restarting incremental Fock matrix formation ***
  2   -193.05445025  -0.0031554099  0.002309  0.009616  0.009029  0.000283
  3   -193.05376576   0.0006844871  0.007932  0.010314  0.008255  0.000209
  4   -193.05459092  -0.0008251549  0.000666  0.002997  0.002746  0.000113
  5   -193.05456836   0.0000225561  0.001027  0.001207  0.001306  0.000063
  6   -193.05460843  -0.0000400739  0.000067  0.000252  0.000430  0.000013
  7   -193.05460837   0.0000000665  0.000085  0.000210  0.000252  0.000007
  8   -193.05460869  -0.0000003222  0.000017  0.000125  0.000046  0.000002
  9   -193.05460867   0.0000000164  0.000027  0.000047  0.000037  0.000001
                  ***Gradient check signals convergence***
              ***Rediagonalizing the Fockian in SOSCF/NRSCF***

               *****************************************************
               *                     SUCCESS                       *
               *           SCF CONVERGED AFTER  10 CYCLES          *
               *****************************************************

Total Energy       :         -193.05460870 Eh           -5253.28297 eV
  Last Energy change         ...   -2.8970e-08  Tolerance :   1.0000e-08
  Last MAX-Density change    ...    1.3803e-05  Tolerance :   1.0000e-07
             **** THE GBW FILE WAS UPDATED (ts.gbw) ****
             **** DENSITY ts.scfp WAS UPDATED ****
             **** ENERGY FILE WAS UPDATED (ts.en.tmp) ****
             **** THE GBW FILE WAS UPDATED (ts.gbw) ****
             **** DENSITY ts.scfp WAS UPDATED ****
Total SCF time: 0 days 0 hours 0 min 3 sec 

Maximum memory used throughout the entire SCF-calculation: 16.0 MB


-------------------------------------------------------------------------------
                          DFT DISPERSION CORRECTION                            
                                                                               
                              DFTD3 V3.1  Rev 1                                
                          USING Becke-Johnson damping                          
-------------------------------------------------------------------------------
-------------------------   ----------------
Dispersion correction           -0.012455518
-------------------------   ----------------


-------------------------   --------------------
FINAL SINGLE POINT ENERGY      -193.067064219401
-------------------------   --------------------



           ************************************************************
           *        Program running with 6 parallel MPI-processes     *
           *              working on a common directory               *
           ************************************************************
------------------------------------------------------------------------------
                         ORCA SCF GRADIENT CALCULATION
------------------------------------------------------------------------------

Gradient of the Kohn-Sham DFT energy:
Kohn-Sham wavefunction type      ... RKS
Hartree-Fock exchange scaling    ...    0.000
Number of operators              ...    1
Number of atoms                  ...   10
Basis set dimensions             ...  160
Integral neglect threshold       ... 2.5e-11
Integral primitive cutoff        ... 2.5e-12
SHARK Integral package           ... ON

Nuc. rep. gradient       (SHARK) ... done (  0.0 sec)
HCore & Overlap gradient (SHARK) ... done (  0.0 sec)
RI-J gradient            (SHARK) ... done (  0.2 sec)
Exchange-correlation gradient    ... done
Dispersion correction            ... done

------------------
CARTESIAN GRADIENT
------------------

   1   O   :   -0.015017795    0.029883948   -0.015522152
   2   C   :   -0.000461453   -0.001221310   -0.001417571
   3   C   :   -0.011993881    0.014728789    0.011021010
   4   C   :    0.021487902   -0.028017030   -0.004575640
   5   H   :   -0.000352285   -0.000037181   -0.000006381
   6   H   :    0.000391069    0.000014567    0.000078930
   7   H   :    0.000387160    0.000083979    0.000079868
   8   H   :   -0.001336284   -0.001386387    0.000460395
   9   H   :    0.001504082   -0.001504342   -0.000319279
  10   H   :    0.005391484   -0.012545032    0.010200821

Difference to translation invariance:
           :   -0.0000000000    0.0000000000   -0.0000000000

Difference to rotation invariance:
           :   -0.0001188158    0.0000383063    0.0001232346

Norm of the cartesian gradient     ...    0.0584175231
RMS gradient                       ...    0.0106655317
MAX gradient                       ...    0.0298839475

-------
TIMINGS
-------

Total SCF gradient time            ...        0.954 sec

One electron gradient       ....       0.025 sec  (  2.6%)
RI-J Coulomb gradient       ....       0.161 sec  ( 16.9%)
XC gradient                 ....       0.642 sec  ( 67.3%)

Maximum memory used throughout the entire SCFGRAD-calculation: 28.1 MB
------------------------------------------------------------------------------
                         ORCA GEOMETRY RELAXATION STEP
------------------------------------------------------------------------------

Reading the OPT-File                    .... done
Getting information on internals        .... done
Copying old internal coords+grads       .... done
Making the new internal coordinates     .... (new redundants).... done
Validating the new internal coordinates .... (new redundants).... done
Calculating the B-matrix                .... done
Calculating the G,G- and P matrices     .... done
Transforming gradient to internals      .... done
Projecting the internal gradient        .... done
Number of atoms                         ....  10
Number of internal coordinates          ....  35
Current Energy                          ....  -193.067064219 Eh
Current gradient norm                   ....     0.058417523 Eh/bohr
Maximum allowed component of the step   ....  0.300
[...]
     16       0.000000   0.000000   0.000000   0.000000   0.000000   0.000000
     17       0.000000   0.000000   0.000000   0.000000   0.000000   0.000000
     18       0.000000   0.000000   0.000000   0.000000   0.000000   0.000000
     19       0.000000   0.000000   0.000000   0.000000   0.000000   0.000000
     20       0.000000   0.000000   0.000000   0.000000   0.000000   0.000000
     21       0.000000   0.000000   0.000000   0.000000   0.000000   0.000000
     22       0.000000   0.000000   0.000000   0.000000   0.000000   0.000000
     23       0.000000   0.000000   0.000000   0.000000   0.000000   0.000000
     24       0.000000   0.000000   0.000000   0.000000   0.000000   0.000000
     25       0.000000   0.000000   0.000000   0.000000   0.000000   0.000000
     26       0.000000   0.000000   0.000000   0.000000   0.000000   0.000000
     27       0.000000   0.000000   0.000000   0.000000   0.000000   0.000000
     28       0.000000   0.000000   0.000000   0.000000   0.000000   0.000000
     29       0.000000   0.000000   0.000000   0.000000   0.000000   0.000000
                  6          7          8          9         10         11    
      0       0.043385  -0.001279   0.118683  -0.052028   0.088525   0.204134
      1       0.002178  -0.014500   0.100803  -0.008804  -0.007657  -0.089743
      2      -0.007279  -0.050246  -0.042675  -0.014434   0.075940  -0.060731
      3       0.001578   0.000471   0.058460  -0.001765  -0.070068  -0.244116
      4       0.001261   0.005919  -0.162231   0.029088  -0.026817  -0.036327
      5      -0.003588   0.010625   0.025427  -0.051639   0.000151   0.058032
      6       0.005671   0.000701   0.004110   0.028792  -0.041695  -0.087067
      7      -0.059915   0.006107   0.157774   0.019539  -0.023947   0.053889
      8       0.008745   0.016254   0.025284   0.201609  -0.088969   0.143682
      9      -0.038835   0.001077  -0.202618   0.020807  -0.027253   0.123817
     10      -0.024053   0.010375  -0.025542  -0.027596   0.038144   0.120650
     11       0.013885   0.040317   0.018654  -0.024821  -0.019205  -0.114466
     12      -0.000780  -0.039012   0.434578   0.120837  -0.142169   0.095173
     13       0.002180   0.239662  -0.269918   0.037724  -0.017542  -0.090223
     14      -0.000262  -0.535606   0.023563  -0.161372   0.028781  -0.059579
     15      -0.006071   0.012685  -0.238703   0.189520  -0.101813  -0.311410
     16      -0.003252   0.286954  -0.382792   0.027479  -0.008472  -0.182686
     17      -0.009809   0.437390   0.016434  -0.268622   0.064861  -0.102549
     18       0.000294   0.031215   0.052991  -0.370719   0.043835  -0.555445
     19       0.007116  -0.600871  -0.285606   0.040532  -0.005220  -0.145245
     20      -0.005434   0.003891   0.020847  -0.148271   0.030203  -0.028119
     21       0.133559   0.007616   0.037890   0.509295   0.210255  -0.232758
     22       0.073290   0.044728  -0.147765   0.028680   0.595795  -0.077089
     23      -0.157741   0.024088  -0.137458  -0.433418  -0.379683   0.245147
     24      -0.073528  -0.009873  -0.485632  -0.042537   0.242339   0.218452
     25      -0.016903   0.006803   0.013201  -0.024480  -0.033884   0.114135
     26       0.111359   0.097109   0.051024   0.080463   0.486546  -0.290272
     27      -0.365707  -0.009133  -0.016095  -0.150583  -0.001044   0.016871
     28       0.888516  -0.014066  -0.169614  -0.220790  -0.258760   0.158622
     29      -0.049488  -0.030041  -0.123595  -0.330917  -0.148868   0.159689
                 12         13         14         15         16         17    
      0      -0.028671   0.003595  -0.047284  -0.008968   0.010727   0.032972
      1      -0.032144   0.118893   0.073576  -0.070559   0.069931   0.056871
      2       0.022344  -0.011504  -0.009272   0.024278  -0.066618   0.009841
      3       0.063355  -0.167087  -0.061800  -0.001865   0.010353   0.015400
      4       0.017675  -0.074322   0.113039   0.086515  -0.073325  -0.010758
      5       0.008971  -0.022549   0.042311  -0.128056  -0.085426   0.005883
      6      -0.001562   0.093787   0.037771  -0.049437  -0.005190  -0.027042
      7       0.009049   0.011656   0.033860   0.018136   0.057952  -0.039448
      8       0.038303  -0.024476  -0.059897   0.067699   0.173883   0.001621
      9       0.026664   0.147542   0.054991   0.059318  -0.050888   0.016139
     10       0.002586  -0.074567  -0.197238   0.025826  -0.108949  -0.022512
     11      -0.134523   0.016231   0.027228  -0.002463  -0.062242   0.036207
     12       0.196245  -0.520966   0.522142   0.179460  -0.368145  -0.017515
     13       0.005996  -0.007261  -0.032180  -0.112313  -0.045450   0.000754
     14      -0.055184   0.074410  -0.045437   0.229995   0.142291  -0.001178
     15       0.097751  -0.106506  -0.431974  -0.542686   0.072345   0.094402
     16      -0.019102   0.068319  -0.239427  -0.092646   0.159343   0.027549
     17      -0.086686   0.122474  -0.089293   0.220550   0.209731  -0.023758
     18      -0.102386   0.030241  -0.216612   0.620800   0.323077  -0.030048
     19      -0.009932   0.094977  -0.218721  -0.103278   0.151155   0.003963
     20      -0.036365   0.036854  -0.010845   0.041401   0.013631  -0.003323
     21      -0.487470   0.149180  -0.034978   0.096230  -0.273097  -0.337447
     22       0.149018  -0.356946   0.097289  -0.114564   0.248867   0.106065
     23       0.254098   0.112457   0.013963   0.013154   0.023578   0.264780
     24      -0.322268  -0.503079   0.432871  -0.107293   0.542723   0.164070
     25      -0.030019  -0.031233  -0.259804   0.040465  -0.201963  -0.018845
     26       0.680512   0.382576   0.126794   0.036961   0.076171  -0.219633
     27       0.019170   0.009421   0.110110  -0.199690   0.077691  -0.450379
     28       0.064988  -0.019715   0.084867  -0.052469   0.059496  -0.155648
     29      -0.071395  -0.179245   0.037090  -0.178859   0.279583  -0.693934
                 18         19         20         21         22         23    
      0       0.039884  -0.013436   0.020087  -0.005751   0.008451  -0.014738
      1       0.061820  -0.034795   0.092983  -0.009516   0.016939  -0.092737
      2      -0.017429   0.010594  -0.034653   0.005112  -0.011366   0.032017
      3       0.038031  -0.137311  -0.070944  -0.006330   0.053320  -0.009241
      4      -0.018552  -0.044687   0.068755   0.015652   0.001506   0.002496
      5       0.027149   0.023151   0.003919   0.037846   0.036914   0.008537
      6      -0.255048   0.055195   0.017585   0.071942  -0.073367  -0.035735
      7       0.002686   0.044254  -0.167842  -0.012956   0.002179   0.213090
      8      -0.033165  -0.001353   0.050178   0.016995   0.021679  -0.048000
      9       0.077229  -0.003659  -0.013711  -0.076718   0.074019   0.044225
     10      -0.023443  -0.013434   0.025602   0.062032  -0.060080  -0.064311
     11      -0.002787   0.007923  -0.018027  -0.023663   0.011949   0.023147
     12       0.232470   0.474481   0.110970  -0.285594  -0.262405  -0.326573
     13       0.003910  -0.027768  -0.122365   0.220582   0.262822  -0.044858
     14      -0.142720  -0.385808   0.290325  -0.287792  -0.389979   0.317743
     15       0.352594   0.298684   0.285399  -0.141425  -0.215326   0.393990
     16       0.110616   0.180324   0.027653  -0.356834  -0.362771   0.016634
     17      -0.119574  -0.110853  -0.407983  -0.400299  -0.253523  -0.409495
     18       0.180480   0.509155   0.305441   0.266387   0.169747   0.129687
     19       0.090154   0.344785  -0.575824  -0.072348   0.128063  -0.544771
     20       0.059050   0.174672   0.085355   0.089530   0.055943   0.029506
     21       0.278744  -0.057812  -0.057551  -0.000893  -0.030644   0.020328
     22      -0.536292   0.145079   0.161918  -0.397770   0.410540   0.098235
     23       0.023592  -0.004950  -0.031533   0.071609  -0.059245  -0.006947
     24       0.218164  -0.050791  -0.190968   0.369946  -0.346231  -0.000823
     25      -0.102511   0.008393   0.059377  -0.025885   0.024421  -0.052767
     26       0.348292  -0.103330  -0.057024   0.228682  -0.223392  -0.073112
     27      -0.229827   0.061600   0.027074   0.015200  -0.092372   0.026259
     28      -0.078679   0.066692  -0.150970   0.012017  -0.059944   0.196908
     29       0.212888  -0.092015   0.241072  -0.154365   0.210052  -0.171446
                 24         25         26         27         28         29    
      0      -0.010348  -0.000220  -0.000069   0.000039   0.000094   0.000288
      1      -0.025865  -0.000509  -0.000538   0.000021  -0.000789  -0.000808
      2       0.000958   0.000113   0.000320  -0.000288   0.000283   0.000126
      3      -0.016528   0.042014  -0.002028  -0.013435  -0.025695  -0.000209
      4      -0.001630   0.012669  -0.009656  -0.040361   0.081014   0.003362
      5       0.008024  -0.029316  -0.018853  -0.074339  -0.037020   0.000719
      6       0.101696   0.000040   0.003558  -0.000193   0.000431   0.003193
      7       0.052921   0.000570  -0.002198  -0.000061   0.002137   0.000162
      8      -0.035604  -0.000376  -0.001417  -0.000830  -0.000848   0.000366
      9      -0.002418   0.000442  -0.039034   0.010691  -0.000812   0.032560
     10       0.004920  -0.001276   0.025291  -0.004364  -0.002548   0.081070
     11      -0.020023   0.000863  -0.045775   0.012747  -0.001179   0.036756
     12       0.012766  -0.116168   0.045105   0.189502  -0.105102  -0.009752
     13      -0.013883  -0.439345   0.154521   0.673809  -0.349437  -0.030630
     14       0.020566  -0.194787   0.060797   0.266616  -0.161175  -0.013211
     15       0.018945  -0.201962   0.017693   0.107950   0.458371   0.006447
     16       0.027096   0.295553  -0.028817  -0.163840  -0.640766  -0.010373
     17       0.002316  -0.196128   0.013036   0.081784   0.412731   0.006511
     18      -0.046433  -0.178967  -0.041041  -0.145171  -0.053263   0.000152
     19      -0.018135  -0.008734  -0.005825  -0.022117   0.014973   0.001082
     20      -0.000944   0.743784   0.155120   0.551630   0.193494  -0.001666
     21      -0.027081  -0.010559   0.506575  -0.135147   0.010636  -0.299631
     22      -0.005230  -0.004879   0.214499  -0.056065   0.003485  -0.105019
     23       0.010384  -0.014325   0.623394  -0.167687   0.013250  -0.380379
     24       0.049120   0.002844  -0.074130   0.015637   0.002844  -0.114309
     25       0.008390   0.021456  -0.487383   0.101678   0.019434  -0.851801
     26       0.050590   0.003086  -0.064881   0.013887   0.002002  -0.072577
     27      -0.829098   0.001930  -0.006220   0.001607  -0.004263  -0.011009
     28      -0.257499   0.001484   0.001431  -0.000158   0.004380   0.001579
     29       0.469104   0.000089  -0.005577   0.002162   0.000474   0.008413


-----------
IR SPECTRUM
-----------

 Mode   freq       eps      Int      T**2         TX        TY        TZ
       cm**-1   L/(mol*cm) km/mol    a.u.
----------------------------------------------------------------------------
  7:     67.51   0.000048    0.24  0.000223  (-0.012584  0.001679 -0.007869)
  8:    371.42   0.001232    6.22  0.001035  ( 0.013486 -0.029176  0.001347)
  9:    420.09   0.005096   25.76  0.003786  ( 0.049399 -0.031685 -0.018485)
 10:    562.46   0.004414   22.31  0.002449  ( 0.033025 -0.036646 -0.003921)
 11:    629.64   0.007575   38.28  0.003754  (-0.051431  0.032984  0.004618)
 12:    751.01   0.014717   74.37  0.006115  (-0.059223  0.032255  0.039592)
 13:    870.74   0.000591    2.99  0.000212  (-0.007265 -0.000613  0.012598)
 14:    953.48   0.000479    2.42  0.000157  ( 0.010944  0.002848 -0.005386)
 15:    994.46   0.004713   23.82  0.001479  (-0.031885  0.021319 -0.002819)
 16:   1066.48   0.002499   12.63  0.000731  (-0.000837 -0.016441  0.021454)
 17:   1099.80   0.013382   67.63  0.003797  (-0.053683 -0.003026 -0.030100)
 18:   1294.22   0.009168   46.33  0.002211  (-0.044581 -0.001916  0.014811)
 19:   1357.31   0.010235   51.73  0.002353  ( 0.028820  0.034727 -0.017795)
 20:   1399.36   0.028167  142.34  0.006281  ( 0.021280 -0.073928  0.019053)
 21:   1437.95   0.005230   26.43  0.001135  ( 0.026463 -0.017787 -0.010878)
 22:   1443.23   0.002737   13.83  0.000592  (-0.020547  0.002414 -0.012802)
 23:   1467.72   0.022214  112.26  0.004723  (-0.031141  0.057278 -0.021738)
 24:   1732.37   0.001464    7.40  0.000264  ( 0.012084  0.010609  0.002282)
 25:   2967.27   0.000288    1.46  0.000030  ( 0.005108  0.000435 -0.002007)
 26:   3015.47   0.000189    0.95  0.000020  ( 0.003783  0.002217 -0.000551)
 27:   3016.86   0.000934    4.72  0.000097  (-0.004470 -0.005162 -0.007072)
 28:   3061.30   0.002308   11.66  0.000235  (-0.011750  0.009020 -0.003975)
 29:   3085.22   0.002071   10.47  0.000210  (-0.000895  0.014442  0.000354)

* The epsilon (eps) is given for a Dirac delta lineshape.
** The dipole moment derivative (T) already includes vibrational overlap.

The first frequency considered to be a vibration is 7
The total number of vibrations considered is 23


--------------------------
THERMOCHEMISTRY AT 298.15K
--------------------------

Temperature         ... 298.15 K
Pressure            ... 1.00 atm
Total Mass          ... 58.08 AMU

Throughout the following assumptions are being made:
  (1) The electronic state is orbitally nondegenerate
  (2) There are no thermally accessible electronically excited states
  (3) Hindered rotations indicated by low frequency modes are not
      treated as such but are treated as vibrations and this may
      cause some error
  (4) All equations used are the standard statistical mechanics
      equations for an ideal gas
  (5) All vibrations are strictly harmonic

freq.      67.51  E(vib)   ...       0.50 
freq.     371.42  E(vib)   ...       0.21 
freq.     420.09  E(vib)   ...       0.18 
freq.     562.46  E(vib)   ...       0.11 
freq.     629.64  E(vib)   ...       0.09 
freq.     751.01  E(vib)   ...       0.06 
freq.     870.74  E(vib)   ...       0.04 
freq.     953.48  E(vib)   ...       0.03 
freq.     994.46  E(vib)   ...       0.02 
freq.    1066.48  E(vib)   ...       0.02 
freq.    1099.80  E(vib)   ...       0.02 
freq.    1294.22  E(vib)   ...       0.01 
freq.    1357.31  E(vib)   ...       0.01 
freq.    1399.36  E(vib)   ...       0.00 
freq.    1437.95  E(vib)   ...       0.00 
freq.    1443.23  E(vib)   ...       0.00 
freq.    1467.72  E(vib)   ...       0.00 
freq.    1732.37  E(vib)   ...       0.00 
freq.    2967.27  E(vib)   ...       0.00 
freq.    3015.47  E(vib)   ...       0.00 
freq.    3016.86  E(vib)   ...       0.00 
freq.    3061.30  E(vib)   ...       0.00 
freq.    3085.22  E(vib)   ...       0.00 

------------
INNER ENERGY
------------

The inner energy is: U= E(el) + E(ZPE) + E(vib) + E(rot) + E(trans)
    E(el)   - is the total energy from the electronic structure calculation
              = E(kin-el) + E(nuc-el) + E(el-el) + E(nuc-nuc)
    E(ZPE)  - the the zero temperature vibrational energy from the frequency calculation
    E(vib)  - the the finite temperature correction to E(ZPE) due to population
              of excited vibrational states
    E(rot)  - is the rotational thermal energy
    E(trans)- is the translational thermal energy

Summary of contributions to the inner energy U:
Electronic energy                ...   -193.06999252 Eh
Zero point energy                ...      0.07532851 Eh      47.27 kcal/mol
Thermal vibrational correction   ...      0.00209058 Eh       1.31 kcal/mol
Thermal rotational correction    ...      0.00141627 Eh       0.89 kcal/mol
Thermal translational correction ...      0.00141627 Eh       0.89 kcal/mol
-----------------------------------------------------------------------
Total thermal energy                   -192.98974090 Eh


Summary of corrections to the electronic energy:
(perhaps to be used in another calculation)
Total thermal correction                  0.00492312 Eh       3.09 kcal/mol
Non-thermal (ZPE) correction              0.07532851 Eh      47.27 kcal/mol
-----------------------------------------------------------------------
Total correction                          0.08025163 Eh      50.36 kcal/mol


--------
ENTHALPY
--------

The enthalpy is H = U + kB*T
                kB is Boltzmann's constant
Total free energy                 ...   -192.98974090 Eh 
Thermal Enthalpy correction       ...      0.00094421 Eh       0.59 kcal/mol
-----------------------------------------------------------------------
Total Enthalpy                    ...   -192.98879669 Eh


Note: Only C1 symmetry has been detected, increase convergence thresholds 
      if your molecule has a higher symmetry. Symmetry factor of 1.0 is   
      used for the rotational entropy correction. 
 

Note: Rotational entropy computed according to Herzberg 
Infrared and Raman Spectra, Chapter V,1, Van Nostrand Reinhold, 1945 
Point Group:  C1, Symmetry Number:   1  
Rotational constants in cm-1:     0.382204     0.268561     0.165892 

Vibrational entropy computed according to the QRRHO of S. Grimme
Chem.Eur.J. 2012 18 9955


-------
ENTROPY
-------

The entropy contributions are T*S = T*(S(el)+S(vib)+S(rot)+S(trans))
     S(el)   - electronic entropy
     S(vib)  - vibrational entropy
     S(rot)  - rotational entropy
     S(trans)- translational entropy
The entropies will be listed as multiplied by the temperature to get
units of energy

Electronic entropy                ...      0.00000000 Eh      0.00 kcal/mol
Vibrational entropy               ...      0.00340749 Eh      2.14 kcal/mol
Rotational entropy                ...      0.01143358 Eh      7.17 kcal/mol
Translational entropy             ...      0.01810171 Eh     11.36 kcal/mol
-----------------------------------------------------------------------
Final entropy term                ...      0.03294278 Eh     20.67 kcal/mol

In case the symmetry of your molecule has not been determined correctly
or in case you have a reason to use a different symmetry number we print 
out the resulting rotational entropy values for sn=1,12 :
 --------------------------------------------------------
|  sn= 1 | S(rot)=       0.01143358 Eh      7.17 kcal/mol|
|  sn= 2 | S(rot)=       0.01077913 Eh      6.76 kcal/mol|
|  sn= 3 | S(rot)=       0.01039630 Eh      6.52 kcal/mol|
|  sn= 4 | S(rot)=       0.01012467 Eh      6.35 kcal/mol|
|  sn= 5 | S(rot)=       0.00991398 Eh      6.22 kcal/mol|
|  sn= 6 | S(rot)=       0.00974184 Eh      6.11 kcal/mol|
|  sn= 7 | S(rot)=       0.00959629 Eh      6.02 kcal/mol|
|  sn= 8 | S(rot)=       0.00947022 Eh      5.94 kcal/mol|
|  sn= 9 | S(rot)=       0.00935901 Eh      5.87 kcal/mol|
|  sn=10 | S(rot)=       0.00925953 Eh      5.81 kcal/mol|
|  sn=11 | S(rot)=       0.00916954 Eh      5.75 kcal/mol|
|  sn=12 | S(rot)=       0.00908738 Eh      5.70 kcal/mol|
 --------------------------------------------------------


-------------------
GIBBS FREE ENERGY
-------------------

The Gibbs free energy is G = H - T*S

Total enthalpy                    ...   -192.98879669 Eh 
Total entropy correction          ...     -0.03294278 Eh    -20.67 kcal/mol
-----------------------------------------------------------------------
Final Gibbs free energy         ...   -193.02173947 Eh

For completeness - the Gibbs free energy minus the electronic energy
G-E(el)                           ...      0.04825305 Eh     30.28 kcal/mol


Timings for individual modules:

Sum of individual times         ...       81.116 sec (=   1.352 min)
GTO integral calculation        ...        5.934 sec (=   0.099 min)   7.3 %
SCF iterations                  ...       29.603 sec (=   0.493 min)  36.5 %
SCF Gradient evaluation         ...       14.346 sec (=   0.239 min)  17.7 %
Geometry relaxation             ...        0.145 sec (=   0.002 min)   0.2 %
Analytical frequency calculation...       31.089 sec (=   0.518 min)  38.3 %
                             ****ORCA TERMINATED NORMALLY****
TOTAL RUN TIME: 0 days 0 hours 1 minutes 29 seconds 346 msec
